22
Properties=species:S:1:pos:R:3:momenta:R:3:forces:R:3 energy=-30135.17668538714 pbc="F F F"
O       18.33314541      13.77886978      -5.79287730       2.28897891       0.46980734      -0.14773889      -2.53128919       1.21616013       2.53385798
H       17.54665332      13.19743121      -5.92318884      -0.63502633       0.01458270       0.36472264       0.73085264      -0.08688412      -0.47882856
O      -31.80776929     -10.36944598       8.52390906      -1.03159073       1.06878593      -0.52441936       0.43432701       0.60310894      -0.16862451
H      -32.71214907     -10.41039863       8.80359157       0.21506142      -0.20463079       0.58839996      -0.95742232       0.26949108       0.27769053
H       17.89138208      14.32993112      -5.02658012       0.07202507      -0.41266350      -0.35699688       1.80043662      -1.12927604      -2.05502939
H      -31.57755385     -11.29435798       8.50771308      -0.15359810      -0.25256061      -0.17246339       0.52309531      -0.87260002      -0.10906601
S       -3.38211628      -0.13202583       6.33897680      -0.94423181       0.71604376       0.54254169      -0.28982667       0.14903472      -0.33987663
S       -4.35325861      -2.35027053       7.13894070       0.98028323       0.43293789       0.22618633       0.32503126       0.62709113      -0.46848767
C       -4.44715305       0.14219452       4.86185641       0.05168801       0.14033249       0.64474928       0.50194573       0.21027508      -0.25141013
H       -4.10631710      -0.58154097       4.09883990       0.06334101       0.03824226       0.07404768      -0.37212816       0.25901270       0.34738225
H       -5.47476761      -0.04233487       5.16336340      -0.26642546      -0.10503271       0.09958835      -0.12906639      -0.40671808      -0.02564979
C       -4.72971567      -3.71965937       8.21740379      -0.31447438       0.20802580      -0.12684477       0.15219966      -2.16583872       3.72916031
H       -5.65625454      -3.52827917       8.84145949       0.01165742      -0.03215844       0.07860149       0.87727410       0.25726926      -0.81757998
H       -3.90668087      -3.90845854       9.01272295      -0.04335216       0.20857684      -0.15372241      -0.89599156       0.76332587      -1.40358531
C       -4.94445800      -4.96598809       7.37023484       0.71895411      -0.47656079       0.32394152      -0.10803708       1.53705645      -0.21254075
H       -5.89996725      -4.67604189       6.92562440      -0.11590079       0.03512445       0.02995358       0.51251107      -0.17632973      -1.56933331
H       -4.02192882      -5.08043364       6.74478637       0.04649573      -0.25408487      -0.28267607      -1.32601917      -0.04698449      -0.01310086
H       -5.24496354      -5.84239073       7.90249473       0.22213562      -0.02346653      -0.15252869       0.53338104      -0.85511339       0.84462082
C       -4.36426784       1.57763546       4.37267358      -0.72131240      -1.25298781      -1.30195207       0.93424177       0.86850911       0.84689736
H       -4.64185395       2.26026990       5.20362589      -0.18614990       0.13534108       0.28917959       0.23674832      -0.48499602      -0.24112532
H       -3.34019189       1.87100278       4.05795457      -0.09382638      -0.15485141      -0.31449987      -0.44827157      -0.38013661       0.23616141
H       -5.03588757       1.80651841       3.56528243      -0.16473227      -0.29880271       0.27193012      -0.50399214      -0.15545739      -0.66153210
