20
Properties=species:S:1:pos:R:3:momenta:R:3:forces:R:3 Coordinates=T from=T ORCA-job=T int=T E=T -1253.934929368563=T energy=-23253.302172987234 pbc="F F F"
N        0.32476192      -1.00104193      -0.26697431       0.33869791       0.23235795       0.70677250      -0.82826247      -0.55499591      -0.26460231
C        0.14049750       0.43463439      -0.06495131      -0.77555258      -0.35507278      -0.39243487      -0.25532201       0.02576375       0.14184524
H        1.07529206      -1.24588340      -0.94193695       0.16510209       0.20440736       0.01767578      -0.50429469       0.51340622       0.73074400
H        0.52928845      -1.45314407       0.62198458       0.22304193      -0.06752466      -0.11817246      -0.39756596       0.40371099       0.38975250
C       -0.86924827       0.69635732       1.10446636      -0.51418239       0.33709509       0.66062128       0.47511917      -1.70911360       0.10138835
S       -0.56606044      -0.52858534       2.46576333      -0.88622059      -2.22973552      -0.51696418       0.92600707       0.56331356      -0.63090875
H       -1.87809564       0.43848906       0.77652637       0.00140158      -0.05126693       0.02461813      -0.15794343       0.36857384       0.03612182
H       -0.76614795       1.62709577       1.66528915      -0.21041069      -0.07763241       0.19404264      -0.15882212       0.45344955      -0.86665648
C       -0.29688947       1.16889033      -1.38694369       0.42175978       0.40338455       1.07718631       1.64349985       0.60228485       0.26150671
H        1.07824356       0.88361559       0.27173070       0.03892948      -0.12478873       0.17190834       0.16650239       0.52812016      -0.36323136
O        0.08487517       2.32110040      -1.55443634       0.38133235      -0.35364693      -1.22361437      -0.61314487      -0.38006946       0.23999757
N       -0.92138899       0.44827088      -2.36123024       0.01487684       0.31824597      -0.21038882       0.00852031      -1.87234080       0.73302007
H       -0.94311435      -0.59592830      -2.18240688       0.15200209       0.12183885      -0.30800530      -0.03933832       1.86310005      -0.57693678
C       -2.02401110      -1.48674739       2.35273884       0.53370871      -0.34463554      -0.23765183      -0.80942630      -1.29415776      -0.87471246
O       -2.63295442      -1.74133015       1.33171123      -0.77118779       1.00415418       0.32781211       0.40004694       0.49160400       0.06167102
C       -2.51939688      -2.04315530       3.68171709       0.67377359       0.61972748       0.35428911       0.66568846       3.51589537       0.47466910
H       -2.25120649      -1.22879857       4.46647354      -0.04235692      -0.17364568      -0.06791182      -0.61842668      -1.88270605      -0.83534557
H       -0.88893193       0.83803080      -3.30881427      -0.19452515       0.24808484      -0.35535659      -0.14018139      -0.39059061       0.68331468
H       -2.14785233      -2.99668578       3.88055937       0.09731551       0.13201850       0.07362595       1.45015919      -1.61481345       0.57435536
H       -3.56514788      -2.22006894       3.59466893       0.35249505       0.15663395      -0.17805247      -1.21281445       0.36956447      -0.01599369
