23
Properties=species:S:1:pos:R:3:momenta:R:3:forces:R:3 energy=-34120.451509045044 pbc="F F F"
N       -0.18300797      -1.88209321      -0.34374819      -0.12267937       0.47195715       0.00005058       1.35959792      -2.90143847      -0.91651410
C       -1.08669996      -0.85232678      -0.69381138      -2.22448211      -0.16592904       0.27914451      -0.45072001       1.30708551      -0.59071445
H       -0.26048288      -2.68064871      -1.04045159       0.19593566       0.02062602       0.09363136      -0.31950793       1.03004253       1.08589888
H        0.79760603      -1.62808079      -0.45788573      -0.19093290       0.01514496      -0.11837313      -0.25140890       0.45341307       0.05471809
C       -2.48335311      -1.17070515      -0.01486291       0.50741934       1.29954188       0.38844654       1.24033153      -1.80976748       1.08482039
S       -3.21022557       0.02509437       1.20256095       0.49082675      -0.39484912       0.32036773       1.10573545      -0.19879665      -0.99138588
H       -2.14453124      -2.12043025       0.58971717      -0.14105591      -0.08194243      -0.04530842      -1.09471929       1.57094157      -0.98294038
H       -3.24036529      -1.49282954      -0.74855142       0.21042910      -0.24415703       0.05864633       0.12880225       0.24644069       0.18485028
H       -1.96053304       0.41943902       1.57044419       0.27768252      -0.11876203      -0.04231133      -0.58033290       0.04707934       0.22867238
C       -1.17183683      -0.68983026      -2.26147756      -0.21148135       0.32005312      -0.07069131      -1.16744435       1.54247904       1.17757785
H       -0.62851542       0.08167965      -0.29712912      -0.19802268       0.07176082       0.21655366      -0.70943034      -0.15848872      -0.08090690
O       -1.05974887      -1.58951232      -3.05362372      -0.52050461      -0.64987291      -0.47318108       0.53472573      -0.47966245      -0.26145285
N       -1.47742491       0.63107292      -2.57630718       0.35549369       0.63944145      -0.66303276       1.39962041      -1.55661094      -1.04117739
H       -2.11186919       1.05650320      -1.96713395       0.10521674       0.33185278      -0.32812312      -0.91661578       1.03167665       0.98605102
C       -1.11564668      -1.32670078       3.58183191       1.33090976      -0.05524469       0.70353136       1.15475259      -0.62106449      -0.45389003
O       -1.86575382      -0.67317683       4.22828826      -0.35797519       0.62817055       0.93492434      -0.72964233       1.49512374       0.41600084
S        0.31780539      -0.59378320       2.70584290      -0.55966696      -1.87244230      -2.20596050      -0.36533640       0.39688768       0.23498735
H        0.78704321      -1.67141896       2.06486730       0.06179315      -0.19089790      -0.22746552      -0.22478938      -0.20258479       0.01684267
C       -1.20791200      -2.81585240       3.64694015       0.87253494      -0.17706771       1.84189581      -0.85090292       0.77750683      -0.09412408
H       -2.26594193      -3.05441080       3.48727939       0.22641677      -0.19432515      -0.26725805       0.15680470      -0.21452485       0.03380798
H       -1.49865561       0.89158388      -3.55320463       0.08666074       0.25074719      -0.02694379      -0.27382249      -0.12728517      -0.00250989
H       -0.95484419      -2.98899685       4.68268202      -0.10243685      -0.00714007      -0.25624437       0.23336148      -0.79900193       0.36102957
H       -0.57774319      -3.29175946       2.93714787      -0.09208088       0.10333353      -0.11229903       0.62094104      -0.82945096      -0.44964170
