22
Properties=species:S:1:pos:R:3:momenta:R:3:forces:R:3 energy=-30133.79150373904 pbc="F F F"
O       -4.23223047       0.03683921       2.88045330       0.58577251       0.57872465       0.69636461      -0.25314746       0.57722776       0.89408328
H       -4.17179340       0.49995692       4.66922558      -0.01283202      -0.12635406       0.06235688       0.04560448      -0.24098843      -0.46540575
O       -5.39229402      -0.70250738       3.22918767      -0.62544096       0.15388768       0.33324279      -0.12874992      -0.63953982      -0.26456910
H       -6.06496028      -0.02193503       3.38185486       0.22647403       0.04687633       0.04199074      -0.07433094       0.34053680      -0.02465910
H       -3.70230577      -0.66095924       2.48188669      -0.00472359      -0.04211927      -0.16928339       0.28337029      -0.17818576      -0.08380102
H       -5.37015012      -1.71246154       4.53445834       0.01939564      -0.05773410       0.27261247       0.04079935       0.13206361       0.39195531
S       -4.43922790       0.45106183       5.99811305       0.26205098       0.45876372      -1.97131765       0.39751437      -0.71256449       0.00041528
S       -5.30083157      -2.15564785       5.83790454       0.48888441      -1.37983544       0.76949124      -0.09104981       0.16994401      -0.65712695
C       -3.77435931       2.10402809       6.33220953      -0.22016458       0.95750691       0.71499645      -1.12919950       0.56562412      -0.64423341
H       -2.74563203       2.25544646       5.98708832       0.04180636       0.11244607      -0.07427553       0.06611669      -0.34871194       0.33867922
H       -4.41633682       2.71126389       5.67240203       0.01847789       0.19994189       0.01851995       0.46759462       0.23997527       0.10450882
C       -6.07306276      -3.77366688       5.42546438       0.37551190       0.58945988      -0.58202112       1.00208700       0.51589060      -1.86609077
H       -7.05167938      -3.61674637       4.92282481      -0.15454811      -0.08072990      -0.26746773       0.49199757      -0.12754582       0.46814236
H       -6.16122023      -4.20120210       6.37047635      -0.16606280      -0.21574083       0.17763700      -0.85486746      -1.03108656       1.76682782
C       -5.11858879      -4.67629159       4.57481656       0.07741691      -1.14927298      -0.09863566      -2.08933401       1.64016676      -0.84556854
H       -4.72933905      -4.01646386       3.76782834      -0.24183256      -0.10785053      -0.11713144       0.18364675      -0.73774767       0.27280441
H       -4.33933716      -5.08322312       5.18149513      -0.18966185      -0.16190918       0.20997187       0.66961104      -0.38680786       0.26848233
H       -5.76702117      -5.44152532       4.10210786      -0.00342425       0.25814419      -0.26667407       0.67798579      -0.01720679       0.23838010
C       -4.08410673       2.57443896       7.74426045      -0.30745993       0.34089353      -0.02504382       0.98614901       0.95237112      -0.21151018
H       -3.56376422       2.02595436       8.55415631      -0.29079041      -0.22399343       0.06190612      -0.08896931       0.32361054      -0.43522632
H       -3.81450185       3.66873199       7.72920315      -0.01105419      -0.05095561      -0.09151744      -0.11003103      -0.94287193       0.55937207
H       -5.15044102       2.51523352       7.90254903       0.13220515      -0.10014986       0.30427694      -0.49279770      -0.09415380       0.19454034
