23
Properties=species:S:1:pos:R:3:momenta:R:3:forces:R:3 energy=-34118.58199250655 pbc="F F F"
N       -0.23109469       1.12035138       2.53974722       0.68828852       0.26814052       0.33605626       0.13759692      -0.51504749       0.18426216
C       -1.31988361       1.08496290       1.60557847       0.06857191       0.32110637       1.07035482      -1.02405858      -1.01255739       0.61990190
H        0.14202001       0.18112486       2.56026731      -0.06546195       0.23527131      -0.32802628       0.29462585      -0.27520725       0.41593117
H        0.49872645       1.70779204       2.19116201      -0.11757489      -0.07032296       0.03175209       0.48282853       0.59257686      -0.13998041
C       -2.40622859       0.06945781       2.17287796      -0.49946336       0.56443380      -0.50153261       0.41884819       0.43581295       1.00864410
S       -2.80738053      -1.35107688       1.16984902      -0.45455168       0.79810312       0.04961827      -0.13491912      -0.81005598      -1.05361240
H       -3.39557890       0.48901584       2.45394748       0.01788194       0.00386887      -0.09177840       0.68377566       0.44295278      -0.42136437
H       -1.97763505      -0.28928055       3.13481030      -0.00047809      -0.01449338      -0.07061703      -0.19228050       0.05595786      -0.57597381
H       -2.54796824      -1.28397847      -0.28133226       0.07000589      -0.05235055      -0.13186507       0.04392158       0.08968846       0.44244320
C       -1.01135733       0.85304189       0.13519968       0.47487341      -0.39952448      -0.67145960      -1.92981923       0.82228297      -1.38038623
H       -1.75828759       2.05385492       1.63019369       0.28243743       0.04841137       0.37277126      -0.70964724       1.10155058      -0.14682740
O       -1.92983224       1.04442367      -0.70306212      -0.11188967       0.33505714       0.64080244       2.35184860      -0.85153890       1.72083807
N        0.30742674       0.63879300      -0.14866559      -0.82069301      -1.94858269      -0.13400617      -0.38039625      -0.05610120      -0.78678352
H        0.84581996       0.07892856       0.50083955       0.06000676      -0.09765356      -0.07893031      -0.20757121      -0.12653799      -0.03554872
C       -1.25560131      -2.31692364       1.20678472       0.98494431      -0.07561924      -0.97226192       1.37540384       0.51585887      -0.36187981
O       -0.28947691      -1.70604975       1.80705329      -0.22040952      -1.12599696      -0.61355498      -0.89937544      -0.22929916      -1.38194239
S       -1.15753642      -2.51541936      -0.80838696      -0.18545177       0.54922203      -0.22886222       1.11724860      -0.04459826       0.96597832
H        0.05786581      -3.18400713      -0.95731077       0.21848344      -0.18909763       0.02801463      -0.96955276       0.59714526       0.05704722
C       -1.36895541      -3.75388908       1.76477262      -0.43547483       1.14772238       1.21920871       0.89283139      -0.61195147       1.75550485
H       -0.63901456      -3.80447877       2.64569393      -0.09017725       0.01674396       0.16027890      -1.04865050       0.07250477      -1.15871143
H        0.49384940       0.50253451      -1.13925073       0.31380758      -0.08162595      -0.26403222       0.04920707      -0.15586977       0.29911986
H       -1.08318920      -4.54729580       1.06871562      -0.03306603      -0.26281405      -0.00844721      -0.04479044       0.08765812      -0.10583198
H       -2.36666022      -3.95799320       2.13588258      -0.14460909       0.03000006       0.18651633      -0.30707568      -0.12522447       0.07917172
