22
Properties=species:S:1:pos:R:3:momenta:R:3:forces:R:3 energy=-30136.603572902102 pbc="F F F"
O       15.56125367      35.61648126      -6.89207901      -0.54394385       0.68455222       0.60666997       1.39571611      -0.63768161       1.12281236
H       14.85277531      35.45446970      -7.50323142      -0.08665577      -0.05319789      -0.04346261      -1.13613788       0.13931475      -0.94620553
O      -36.28575414     -12.86119036      -7.33761329       0.58861631      -0.24079805       0.55094316      -1.20462630       0.22430904       0.95068404
H      -36.38122206     -13.57200153      -6.66204372       0.21428780       0.28519255       0.19471775       0.06572443       0.72841239      -0.66203535
H       15.63979244      36.55503097      -6.74623463      -0.06713316      -0.14483721      -0.13340091      -0.25957823       0.49836683      -0.17660680
H      -37.05832936     -12.23494865      -7.12529994       0.15492776       0.07848421       0.10721410       1.13890180      -0.95272143      -0.28864873
S       -3.39481983      -4.74559168       7.66797349      -0.90125797       0.68809823       0.31493390      -0.09952774       0.12077872       0.40982802
S       -1.96911942      -4.13301381       9.11175934      -0.48676110       0.02347951       0.41306719       0.10029047      -0.20336194      -0.04210157
C       -4.01158864      -6.27033599       8.47649391       0.38147617      -0.57153329      -0.67061463       1.78795600      -0.28960502      -0.15619171
H       -4.76175914      -6.72094378       7.84427035      -0.01425869      -0.02743279      -0.23212172       0.21843541      -0.27157062      -1.07110381
H       -3.09244869      -6.96903150       8.59267611       0.02413855      -0.08597695      -0.08636244      -1.79855561       0.94002485       0.09912097
C       -2.78009156      -3.07116407      10.37944771       0.48925014      -0.35674742       0.35228563      -1.39281499      -1.33162665      -1.01440513
H       -2.01359531      -3.12969497      11.14627066      -0.07603583       0.06890610       0.00141870       0.17654456       0.62285990       0.24363409
H       -3.68388605      -3.59376898      10.78757190       0.05534177      -0.07356368      -0.17214863       0.69444984       0.34748524      -0.27434510
C       -3.14040401      -1.68538663       9.85246684      -0.35587386      -0.74989770      -1.38961872      -0.04701249      -0.05258986       1.76074970
H       -2.44036966      -1.38823274       9.10637848       0.13334822      -0.18002249       0.12315482       0.78499675       0.74727345      -0.41613951
H       -4.12602982      -1.54325241       9.44780639      -0.26087136      -0.39623458       0.18682153      -0.70660937      -0.67174506      -0.50207531
H       -3.17134500      -1.03628206      10.73801702       0.09305708       0.29704999      -0.38882553       0.49777588       0.37707394      -0.26314279
C       -4.79255722      -5.96429527       9.70577094       0.54989186       0.54133270       0.46165761      -0.48899385       0.02259970       1.83527887
H       -4.22964763      -5.63605533      10.59640648       0.07745120      -0.08028732       0.13275102       0.13119043       0.55980140      -0.59314519
H       -5.66324750      -5.30327305       9.50157569       0.11381721      -0.05440995      -0.15181937       0.68377137      -0.16911177       0.11638880
H       -5.18768614      -6.88291686      10.10975861      -0.08281270       0.34784343      -0.17726104      -0.54189616      -0.74828595      -0.13235053
