22
Properties=species:S:1:pos:R:3:momenta:R:3:forces:R:3 energy=-30131.484499989147 pbc="F F F"
O       -2.66777083      -1.18404394       6.10178290      -0.59422101      -0.01233068      -0.06587704      -0.95599462      -1.58741461       0.26944355
H       -4.06216729      -0.62765418       6.53940669       0.04214963       0.02666139       0.20500739      -0.66994523      -0.38862540      -0.05400619
O       -2.61098758      -0.97853971       4.69573765       0.70250330      -1.02732540       1.69404299       0.42247724       2.09644833      -1.16406698
H       -2.41054508       0.02749858       4.52495902       0.12136230       0.28158908      -0.00617809      -0.02505468      -1.83444142       0.81145138
H       -2.86883144      -2.18644455       6.09632801       0.07898510       0.07034582      -0.06942037       0.43370560       1.85631549       0.40315318
H       -3.91046716      -0.76505271       4.27375808      -0.31444337      -0.23791424      -0.03577738      -1.12415599      -0.19752407      -0.50033005
S       -5.49661145      -0.58714807       6.55325122       0.05112940       0.43188928      -0.95763573       0.96953141       0.37720704       0.50500092
S       -5.32690789      -0.54942789       4.07803155      -0.56450096      -0.39126082       0.52599634       0.22829810      -0.18944965       0.40551605
C       -5.63163304      -0.56263044       8.42030691      -0.40886775       0.04378784       0.12179917      -0.43749732      -0.01374815      -0.51877999
H       -4.71154997      -0.12538343       8.80917246      -0.02209749      -0.20761267      -0.33692830       0.10864576      -0.23749764       0.15538907
H       -6.46425328       0.08817152       8.71509333       0.11125041       0.18202829      -0.06310333       0.22606835       0.33171120      -0.31356549
C       -5.31871041      -0.98176826       2.29712704       0.75324715       0.76187890       0.28684092       1.24035835      -0.82884568      -1.30794847
H       -6.26307293      -1.57151860       1.95617665      -0.02856617      -0.15623377      -0.03859944       1.28321052       1.51751590       0.67351371
H       -4.49293437      -1.74632321       2.20520109       0.18479562      -0.14590572       0.35405116      -0.78082263       0.64629614      -0.11344194
C       -4.93281472       0.30412394       1.43753812      -0.36220569       0.40036622      -0.54725884      -0.54089755      -0.77132905       1.26597810
H       -3.88328680       0.67224065       1.64839401       0.14940761      -0.33879763      -0.12460757      -1.03778863      -0.68413174      -0.15109172
H       -5.02053867       0.01830703       0.36939761       0.11236344      -0.26731710       0.13117150      -0.09627990       0.63912421       0.43697745
H       -5.62631754       1.10897836       1.79754694       0.07196375      -0.04008850      -0.14690951       0.45219362      -0.43483222      -0.96877247
C       -6.00491902      -1.95518303       8.89497030      -0.57987468       0.42832820      -0.69641650       1.08874202      -1.65245378       0.50738847
H       -5.71470621      -2.11564660       9.99603641       0.16307395      -0.05508343       0.04159533      -1.14685583       0.47948843      -1.23852110
H       -7.09990065      -2.14330791       8.63485326       0.27823743       0.11882239      -0.01718407       1.49538803      -0.10358668       0.68499565
H       -5.33656382      -2.75164575       8.41281923       0.05430808       0.13417250      -0.25460879      -1.13332725       0.97977340       0.21171677
