22
Properties=species:S:1:pos:R:3:momenta:R:3:forces:R:3 energy=-30136.360750393083 pbc="F F F"
O       21.72746020      33.26242841      -2.22715219      -0.54343824      -0.99805324      -0.59580285       0.23168023      -0.35288676      -0.08068010
H       21.70502623      33.39978214      -1.25438381       0.02618023      -0.00797012       0.03340877      -0.11062784       0.15998353      -0.04117128
O      -34.87000589     -13.92384773      -6.65781060       0.22634814       0.53174872       0.04691443      -0.67715398      -0.01176446       0.37658546
H      -35.53385397     -13.84977308      -7.36732719      -0.11381494       0.09938781      -0.14655689       0.27222979      -0.04313213       0.45168427
H       21.21708987      33.97985321      -2.61004226      -0.09654272       0.18338290       0.02333748      -0.12105238       0.19290322       0.12185140
H      -35.41187438     -13.97639852      -5.81293330      -0.17591885      -0.06229411       0.20713855       0.40492419       0.05489659      -0.82826970
S       -4.52956472      -3.39130775       7.04354995       1.14209672      -0.00964593       0.72483345      -0.08574343       0.22705278      -0.13974288
S       -3.65075283      -4.59918350       8.59578750      -0.47520844      -0.02090694      -0.48306361      -0.38505384      -0.01680562      -0.55896226
C       -6.31056717      -3.18442641       7.51672058       0.71344462       0.16164647      -0.94752000       0.47607896      -2.48256040       1.07669973
H       -6.25410519      -3.22550338       8.62157154      -0.27906642      -0.11400878       0.01527374      -0.54705352       0.19786657      -0.41153491
H       -6.70074625      -2.25398736       7.19497762      -0.25243358       0.34953996       0.13358708       0.02723601       1.33143651      -0.32402599
C       -2.84821697      -3.32483765       9.65338223       0.49048528      -0.39731397       0.03977009      -0.64545673      -0.35848397      -2.27324986
H       -3.65638606      -3.07437658      10.32811141      -0.12116211      -0.03943459      -0.22045219       0.23776019       0.46988717       0.69871610
H       -2.66485642      -2.48459619       8.96719682       0.08605606       0.16012959      -0.03710091       0.05265522       0.08692232       0.41816282
C       -1.59748966      -3.87255778      10.27545939       0.48553298       0.34340923      -0.55396707       1.00385284       0.83053720       0.02390224
H       -1.93986801      -4.59962624      10.98373896      -0.13512176      -0.11526961      -0.14058989       0.13188735      -0.24866238       1.19909024
H       -0.91942127      -4.50787480       9.60232609       0.04527566       0.08732719       0.09787405      -0.79284602       1.62576210       0.50409561
H       -1.12181619      -2.92498307      10.74218066       0.05821591      -0.32205078      -0.04085687      -0.01850569      -2.06866312      -0.39832333
C       -7.21283731      -4.32699819       6.93496125      -1.06156646      -0.01263389       1.75902196       1.76037884      -0.72439879       1.65081871
H       -6.57165867      -5.26668318       6.87382599      -0.04963797      -0.00196923       0.06719430      -1.14781368       0.80485576       0.44075182
H       -8.13843254      -4.46797303       7.54344771      -0.05387252       0.07113220      -0.08020750       0.65518421      -0.01180555      -0.52539402
H       -7.42138859      -4.09038165       5.92829063       0.08414846       0.11384694       0.09776326      -0.72256035       0.33705974      -1.38100374
