20
Properties=species:S:1:pos:R:3:momenta:R:3:forces:R:3 Coordinates=T from=T ORCA-job=T int=T E=T -1253.934929368563=T energy=-23252.15308346031 pbc="F F F"
N       -0.30794690      -1.03455645       1.38962754      -0.64692150      -0.61366664      -0.21818026       0.71583736       2.76095619      -2.26206329
C        0.02409602      -0.65119197      -0.05948068      -0.01877647      -0.55120930       0.32688049      -1.02073359       0.26072478       0.45565915
H       -0.00743921      -1.96273454       1.56804544      -0.01591698       0.02021488       0.08855049       0.78333282      -1.09147763       0.30389977
H        0.27887644      -0.29756839       1.86566643       0.51159550      -0.00968490       0.04113044      -0.63390791      -1.22080002       0.09727267
C       -0.58738167       0.80774170      -0.32893697      -0.43645906       0.07127661       0.29853399       2.00673199      -0.86176831       1.48101068
S       -0.44955512       1.65534419       1.35264153      -1.13463558       0.70864473      -1.01542797       0.00735065      -0.14189729      -0.12081814
H       -1.62037903       0.78160083      -0.64298489       0.06010682      -0.10655370      -0.12069832      -0.25587976      -0.03613243      -0.21080041
H        0.08386235       1.37423982      -1.03098953      -0.01565209       0.21274530      -0.08373048      -0.87015879      -0.42120641       0.58115828
C       -0.63582891      -1.71191421      -0.98050350       0.64759753      -0.27495182       0.44023083       2.65470219       0.80552083       1.68559897
H        1.12818481      -0.59610859      -0.19678138      -0.02633840       0.10546326      -0.13199561      -0.47179502       0.06340019      -0.01200692
O       -1.81096059      -1.86723679      -0.97148982       0.42648715      -0.41039826       0.55574533      -3.01184964      -0.28181583      -0.64133126
N        0.28333390      -2.50827601      -1.56511905      -0.38131340       0.03713459       0.02933757      -2.36745024       0.01522604      -0.37138692
H        1.19217981      -2.29647516      -1.35347839       0.06820572       0.19192468       0.17391151       2.85376835       0.04061747      -0.02312469
C       -1.58922673       0.63631088       2.36167473       0.11615956      -0.15403764       0.08272966      -1.32114673      -2.25487461       1.68843129
O       -1.45683086       0.16462030       3.49233224       0.14896112      -0.08375926      -0.17826122       0.84900630       1.84121752      -1.81274390
C       -2.92791604       0.36173062       1.67269489       0.46112324       0.50930472      -0.27040286      -0.11003923       0.47817716       0.61199093
H       -3.69816955       0.21874900       2.47572382      -0.14790565      -0.04997894      -0.08001059       0.70775217      -0.13821249      -0.69031495
H        0.00626419      -3.20630770      -2.22027884       0.06286097       0.34879381       0.10906232       0.05170351      -0.47945666      -0.35196126
H       -2.89688426      -0.52039638       0.97842517       0.39651822       0.07845892      -0.13677372       0.18241867       1.01237762       0.43893954
H       -3.10929453       1.34081499       1.22439712      -0.07569672      -0.02972058       0.08936859      -0.74964231      -0.35057643      -0.84740841
