23
Properties=species:S:1:pos:R:3:momenta:R:3:forces:R:3 energy=-34121.15958387106 pbc="F F F"
N       -0.81648063      -1.67707268      -0.08460632       1.17890819       0.26993852       0.57673100      -1.26899326       1.33878171      -0.05962884
C        0.51192592      -1.31026068       0.32596999      -0.36504695       0.12178956      -0.25391825       0.48034751       0.31031603       0.48734212
H       -1.14855270      -0.96861901      -0.76449010      -0.07335484      -0.04862556      -0.18410412       0.28028131       0.00639599       0.58939308
H       -0.74980942      -2.45231588      -0.69039582      -0.08883745      -0.15164396      -0.17335860       0.13046794      -1.63002682      -0.66045552
C        0.43823448      -0.05401728       1.22389292       0.24644624       0.02477757       0.82211479       1.04089928       1.28564000       0.11156397
S       -0.40084345      -0.40213062       2.79847837       0.21798468      -0.32944456       0.40144224      -0.50429365      -0.63778768      -0.98103652
H       -0.04788241       0.81407723       0.71787793       0.07631483       0.20735963       0.06909189      -0.07881854      -0.78199345       0.00792633
H        1.44971648       0.37686373       1.44960699       0.02792145      -0.01724507      -0.23004509      -0.53893173      -0.75653273      -0.08080892
H       -1.21762380      -1.25428932       2.08547743       0.02470220      -0.06032947       0.05861573       0.37282207       0.46144255       0.96463971
C        1.35018906      -0.97704995      -0.92639024       0.26394042      -0.34100667      -0.75466890      -0.68112248      -0.46596304       0.54482365
H        0.90137291      -2.13974464       0.94816005      -0.09268142      -0.00018922       0.08658730       0.25724384       0.36124128      -0.37571907
O        0.78282559      -0.44861987      -1.86484092      -0.00510236       0.57846909       0.23242657       0.28794029       0.36054841      -0.38484287
N        2.66454121      -1.29531731      -0.90543164      -0.46805315      -0.45819692      -0.34581995       0.31044418      -0.08840981       0.12195404
H        3.03073807      -2.00721844      -0.27391817      -0.20146884      -0.04911316       0.00696887      -0.12978035       0.45393664      -0.30174682
C       -4.43557290      -0.46873589       1.46550352      -0.13971982      -0.12616969       0.40175265      -0.78833499      -0.22230885       0.55461952
O       -5.46425930      -0.22582677       2.06888422      -0.59337418       0.06717001       0.41150995       1.28679872      -0.11991233      -0.73348176
S       -3.88254456      -2.18565976       1.35063637      -0.24497229       0.53411840      -1.65265322       0.15380259       0.07931877      -0.55275391
H       -2.88340745      -1.97920538       0.43234857       0.03087051       0.03042170      -0.00494735      -0.39528280      -0.04271240       0.57175338
C       -3.53294497       0.55050444       0.80982200       0.46883964      -0.69282502       0.46931023      -0.75636929      -0.00630432       0.38233677
H       -3.91968593       1.52168322       1.08330131      -0.10785678       0.14991483       0.03913335      -0.21433817       0.48837265      -0.22355433
H        3.14973715      -1.11406270      -1.77351137      -0.14834430       0.12358878       0.06387905       0.18834347      -0.19215465       0.07457787
H       -3.49242598       0.40697668      -0.26471101      -0.00305066       0.21831834      -0.04512570      -0.09719776       0.04868937      -0.33095509
H       -2.53226823       0.48894189       1.19730254      -0.00406559      -0.05107580       0.00507771       0.66407192      -0.25057721       0.27405328
