23
Properties=species:S:1:pos:R:3:momenta:R:3:forces:R:3 energy=-34120.14245858331 pbc="F F F"
N       -3.38331939       1.51949398       1.78267190       0.45275358      -1.15169606       0.69235993       0.02285683       0.76022148       0.51734132
C       -3.61463824       0.18225597       1.36024420       0.32613918      -0.00091993       1.08140622       0.72767955      -1.80010188       0.43515331
H       -2.41055020       1.74591505       1.64226849      -0.23528092      -0.31324452       0.08395465       0.15546910       0.67379689      -0.15611850
H       -3.99569351       2.09166570       1.18086764       0.06713934       0.09298207      -0.02938131       0.64809072       0.01928009       0.43304807
C       -2.71551789      -0.94084265       2.00018599      -0.86749906       0.76129177      -0.54819992       1.09128940      -0.06858141      -3.76202440
S       -0.99362110      -0.27336235       2.02776870       0.45998204       0.16957566      -0.77093424      -0.03896040      -0.50177617      -0.08471336
H       -2.67612355      -1.84341022       1.24348976       0.04363611      -0.07148167       0.13245038      -0.29588464       1.59838247       1.70812142
H       -3.04802778      -1.27873788       2.94256192       0.16695746       0.40915688       0.12959697      -0.36171275      -0.20478818       1.29458106
H       -0.36100714      -1.46215467       2.07775201       0.06930001      -0.08206667      -0.17276043      -0.08969545      -0.12054460       0.34126507
C       -3.60148252       0.17944410      -0.17255587      -0.21543601       1.12124278      -1.05579605      -0.65780991      -0.33394915      -1.26498103
H       -4.61177236      -0.01669232       1.72442392      -0.36771031      -0.38667780      -0.10032148      -0.83229065      -0.50696450      -0.46452138
O       -4.47775072       0.84321918      -0.72549783      -0.20669821      -1.08855201       1.08543289       0.46501005      -0.22467987       0.10784878
N       -2.68439393      -0.53496125      -0.90995190       0.66136815       0.64552482       0.62552218      -0.96925646       0.95333874      -2.56628180
H       -1.78999383      -0.87131804      -0.60399784       0.34176851      -0.04755573      -0.08142136       0.24605706      -0.18438619       0.30358991
C        0.75479903      -2.11668110       0.15917895      -0.04916471       1.25210565       0.11597414       0.43292594       0.40253174       2.33082913
O       -0.21492683      -2.21701644      -0.51583581      -0.85814146       1.08413961      -0.69945701      -1.17346454      -0.43749315      -0.50017911
S        1.01124279      -3.04413338       1.76114278       1.18082204      -0.77171354       0.89311705      -0.51184381       0.22301464      -1.04310085
H       -0.06769758      -3.79207721       1.50731385      -0.28540819       0.06170552      -0.15567450      -0.04536337      -0.16499178       0.16650856
C        1.90727058      -1.24170797      -0.12527372      -0.30793444      -1.08995862      -1.39878771       1.62016523       1.25713468       1.77428210
H        1.61050631      -0.26377425      -0.52788556      -0.31549090       0.05456634      -0.16967188      -0.02290824      -0.50611347      -0.32328436
H       -2.76622001      -0.36847995      -1.98635182      -0.01959876       0.06499315       0.17338635       0.11392584      -0.38550237       3.00020385
H        2.48050420      -1.85933016      -0.78354343       0.05026474      -0.72988179       0.09766439       0.82646579       0.09177792      -1.04711127
H        2.59300593      -1.03471736       0.77914276      -0.09176770       0.01646405       0.07154078      -1.35074556      -0.53960592      -1.20045674
