22
Properties=species:S:1:pos:R:3:momenta:R:3:forces:R:3 energy=-30133.702590124223 pbc="F F F"
O       -2.94921402      -2.04030337       5.06320152      -0.18779444       0.77864344      -0.82304454      -0.38289256      -0.52416853      -0.47671262
H       -4.31276291      -1.68055582       6.10621482      -0.00609293      -0.15514420      -0.18695572       0.45213399      -0.38815645      -0.18334150
O       -2.99661988      -0.91019083       4.19072898      -0.33280427      -0.48359388      -0.28914130       0.73441099       0.48752827       0.94587826
H       -2.41496832      -0.30534133       4.72262326      -0.04622892      -0.16277338       0.10868451      -0.64081061      -0.36225706      -0.79170358
H       -3.03776240      -2.79058511       4.43066826       0.04090932       0.37606106      -0.11094697      -0.00378719       0.58678550       0.43651730
H       -4.53872477      -0.16378920       4.11051601      -0.21661434       0.10882454      -0.38155095      -0.47155069       0.10230240      -0.01373173
S       -5.36720388      -1.20192903       6.77008447       1.78742048       1.70399375       0.64366853      -0.72324832       0.44819152      -0.38647315
S       -5.88284325       0.09228672       4.29260807       0.93722376      -0.51856803      -0.37420495       0.60424702      -1.19309795       1.49926397
C       -5.34116426      -2.36109813       8.16135770      -0.86501040      -0.61927562       0.81626269       1.52840042       0.83878392       0.81425524
H       -5.39496264      -1.79175064       9.10194304       0.00106855      -0.21093678      -0.18912103      -0.58424872       0.27725700      -0.27979952
H       -6.15482131      -3.06894658       8.16686684       0.09520303      -0.06376417       0.16551929      -0.52658743      -0.18489707      -0.42098325
C       -6.09323579       1.38604972       3.11813689       0.41579226       0.05557645      -0.04167615       0.56613064      -0.34846741      -3.13699007
H       -6.60243091       2.21466363       3.54395066       0.00007336       0.09503781      -0.10372765      -0.08112133       1.13829303       0.81486863
H       -6.81837609       1.06621129       2.32236602      -0.41950777       0.11785098       0.10501220       0.46705985      -0.17451394       0.62534499
C       -4.77514049       1.75279533       2.35237504      -0.25188646      -0.38305289       0.78782101       0.40937933       0.85041445       2.90708756
H       -4.31379002       0.86084478       1.92516371      -0.18692127      -0.21238805      -0.03973311      -0.03190828       0.04491068      -0.17407411
H       -5.04590247       2.47963948       1.61207326       0.14946109       0.07360735      -0.13229094       0.15665656       0.39373592      -0.76995957
H       -4.00405732       2.26053078       3.08586994      -0.06374459      -0.14261926      -0.01735180      -1.41480541      -0.99988776      -1.39715528
C       -4.02015326      -3.10742325       8.32182789      -0.60031253      -0.26601707       0.57014040      -0.34348178      -0.73985785      -0.64799464
H       -4.31945501      -3.82888330       9.08642254      -0.01724470      -0.03060781      -0.25578282       1.01540482      -0.13408548       0.45759928
H       -3.79802664      -3.71179624       7.42676185      -0.13802507      -0.14773733      -0.09352440       0.07823074       0.21691754       0.08218160
H       -3.12348579      -2.49199964       8.56710132      -0.09496352       0.08688333      -0.15805531      -0.80761218      -0.33573097       0.09592230
