20
Properties=species:S:1:pos:R:3:momenta:R:3:forces:R:3 Coordinates=T from=T ORCA-job=T int=T E=T -1253.934929368563=T energy=-23252.815997956273 pbc="F F F"
N       -0.75547182      -1.32243875       1.55308057       0.13228034       0.18757485       0.22695652      -1.12017103       1.10737118       0.73319606
C        0.20827982      -0.96923320       0.54787275      -0.55662840       0.23381025      -0.61896340       1.75517261       0.02335212       0.36898279
H       -0.47672434      -2.24912810       1.85583992       0.03865427      -0.05787015      -0.18114871      -0.29391605      -0.16920388       0.33819064
H       -0.58118944      -0.66075961       2.32880874       0.09368006      -0.07036612      -0.25454411      -0.00008561       0.38772773      -0.31077079
C        0.31111627       0.57740455       0.43125994       0.20804568       0.67726339      -0.14209343       0.33723980       1.19479859       1.02729726
S       -0.48051139       1.42973350       1.93331666      -0.96624067      -0.42780547      -0.15391914      -0.14708027      -2.03787016      -0.71224845
H       -0.26874072       0.85887253      -0.41685341      -0.29312596       0.22300383       0.00129277      -0.51955324       0.76540154      -0.71830189
H        1.32642814       1.08994849       0.37304461       0.09818616      -0.26697046       0.01623015      -0.99949539      -1.24972606      -0.10727890
C       -0.14338765      -1.74236240      -0.75562311       0.30829102       0.21930990       1.16072736      -0.47352791       2.58601022       0.89666557
H        1.22237676      -1.28095893       0.87889429       0.14761048      -0.19251893      -0.14799516      -0.21719164      -0.32062063      -0.59312940
O        0.68868183      -2.39361397      -1.32355144      -0.42564028      -1.00826021      -0.51419933       0.61585397      -1.24988604      -0.75555742
N       -1.39400986      -1.44279751      -1.22461490       0.44848419      -0.29853884      -0.31034367       0.65868425      -0.14680672       0.89726651
H       -1.99775737      -0.82151227      -0.66176119      -0.14346631      -0.17596325       0.05585969       0.14174849      -0.70039231      -0.79773337
C       -2.14081799       0.74741625       1.56647135       0.01547961      -0.30628445       0.47371460       1.63292945       1.02952525      -3.58703325
O       -2.54767888       0.85879615       0.40220607      -0.31124214       0.09099942      -0.36425942       0.27499217      -0.56901872       1.68752599
C       -2.94496582       0.19659599       2.61866848       1.13162097       0.91033306       0.67070893      -1.51052547       0.01947749       2.70999384
H       -3.23627425      -0.79245180       2.30934236       0.03752445       0.31595727       0.31574630       0.08584014      -0.67839479       0.03917024
H       -1.65799181      -1.97869805      -2.03421930       0.01236838       0.00960987       0.00107743      -0.55317509       0.26625749      -0.16122808
H       -3.90844772       0.73460481       2.75814191      -0.12729480      -0.01849480       0.01301016       0.59759897       0.02753016      -0.31918263
H       -2.43511227       0.21155374       3.60994781       0.15141313      -0.04478962      -0.24785754      -0.26533800      -0.28553209      -0.63582540
