22
Properties=species:S:1:pos:R:3:momenta:R:3:forces:R:3 energy=-30131.721509848943 pbc="F F F"
O       -3.16131587       0.76358543       4.80546763      -0.45688271      -0.11863552       0.18420733       1.01921816      -1.26288637       0.26793554
H       -4.59967955       0.51293762       5.14896746       0.02373552       0.11280679       0.24015031      -0.31214924       0.25905853       0.10206142
O       -2.49611195      -0.56141227       4.63539958       0.18213707       0.19643046       0.32364419      -0.20749540       1.33235311       2.04084333
H       -2.49323288      -0.77699679       3.70215717       0.00822158       0.15854872      -0.47412847      -0.33482391       0.38270953      -1.29561591
H       -2.83965929       1.05434546       5.71773893      -0.24650959       0.07631364       0.06404314      -0.28147474      -0.52866453      -1.09623790
H       -3.38000012      -1.59829848       5.34718616       0.00521154       0.08088576      -0.14053502       0.60298689       0.61187196      -0.41657802
S       -5.78427307       0.14251422       5.78254050      -0.20476189      -0.67006909       0.09396699      -0.13111812      -0.16941047      -0.25154029
S       -4.53294579      -1.97151136       5.93851932       1.17879460       0.13644539       1.02516577      -0.75241765      -2.07058096       0.97465531
C       -6.61759190       1.74331350       5.56059668      -0.15254400       0.20224383      -0.34030636       0.24199298       1.28141594       0.27480829
H       -7.18749945       2.05183834       6.43753491       0.18435999       0.06697037       0.10945067      -0.58540553      -0.91704696       0.26619330
H       -5.79204247       2.42879598       5.71536886       0.22133513       0.02418485       0.06390871       0.38778144       0.54862243      -0.61154199
C       -4.15282365      -3.82571601       6.00994022      -0.10229130       0.39463851       0.91502872       0.20110482       0.88987947      -0.50062531
H       -4.89478441      -4.33014948       6.62926103      -0.26124493       0.26924814      -0.16456464       0.01525497       0.45339161       0.57074952
H       -3.15719465      -3.96352270       6.42191055      -0.01686232       0.05764865      -0.17632865       0.13381416      -0.03950055       0.18615678
C       -4.35299593      -4.42402453       4.63665109      -0.46805911       0.47707928      -0.94842496      -1.51615715       0.79622489      -0.82920992
H       -5.23585427      -3.86008893       4.17634270       0.02404775      -0.01893330       0.08102046       0.97393930      -1.17138517       0.25272667
H       -3.55095362      -4.43803685       3.91505345       0.04049044       0.08073719      -0.21412483       0.71849966       0.64323580      -0.06249847
H       -4.58620585      -5.46594854       4.75425059      -0.12829165      -0.04461644      -0.07761379      -0.54953110      -0.72317326       0.00182420
C       -7.39423529       2.04727937       4.26605768       0.37979005      -1.51381732      -0.40578655      -0.48276252      -1.47538662       0.88514864
H       -6.74287711       2.45237727       3.56000681      -0.22867123      -0.09552224       0.01966820       1.46712601       0.72366190      -1.45239866
H       -7.81682438       1.13359818       3.76927579      -0.05929579      -0.24959272      -0.20461236      -0.16189653       0.86287367       0.76267123
H       -8.10575082       2.85216104       4.47012326       0.07729060       0.37700472       0.02617156      -0.44648647      -0.42726433      -0.06952780
