23
Properties=species:S:1:pos:R:3:momenta:R:3:forces:R:3 energy=-34119.996814021164 pbc="F F F"
N       -1.77532849      -3.22078912       2.43389425       0.09685492       0.24336208       0.12782056      -1.46978509       0.72363949       0.42903647
C       -1.23725226      -1.89203774       2.09591546       0.79373627       0.48922529      -0.87005764       1.21899450      -1.51893806       0.84643143
H       -2.34856609      -3.20744764       3.31352711       0.07892855      -0.17404811       0.08672157       1.01443291       0.12837762      -1.18431139
H       -1.08033796      -3.95624000       2.53436265       0.27709022      -0.27554419      -0.11380385       0.27379036       0.54067969       0.10434418
C       -0.45011752      -1.99885849       0.70173860      -0.46120289      -0.13202505      -0.46833071      -1.62321556      -2.19416189       1.13333035
S       -1.46826566      -2.07112420      -0.81521431       0.54781922       0.33265823       0.24360895      -0.03490843       0.28686774       0.87103101
H        0.20431983      -2.91500423       0.71460596      -0.27526186      -0.11979936      -0.09910222      -1.02148080       0.30974931       0.08999714
H        0.27242374      -1.26437437       0.66105626       0.16630864      -0.03234611       0.11845128       1.32958019       2.28627896      -0.49762321
H       -2.55291439      -1.35487703      -0.33358349      -0.21706739       0.08487428      -0.00962702       0.51593792      -0.40625665      -0.36904604
C       -0.16680447      -1.44512014       3.18580497       0.06836606       0.61231773       0.56167998       0.94059706      -2.11597228       0.11703733
H       -2.05794988      -1.13702373       2.13283925       0.04065267      -0.02375932       0.00233416       0.38022730      -0.53341430      -0.57481921
O        0.30120175      -2.24781646       4.03646133      -0.45304236      -1.08955529       0.26390659      -1.34787595       2.31943679      -1.96604466
N        0.33874350      -0.20432923       2.91561380      -0.98900504       1.04755143       0.32460755       0.57559806      -0.53081089       1.88325322
H       -0.23825562       0.44018404       2.40905738      -0.06331857      -0.14173434      -0.24196974      -0.11809006       0.37924448      -0.30923429
C       -1.68419708       0.79620116      -0.49514407      -0.46795704      -0.10200271       0.55110647       0.00811656       0.52070636       3.53759114
O       -1.13766725       0.80259502       0.61748845      -0.71477637       0.04308410       0.41282367      -0.82770926      -0.22767085      -2.40191960
S       -3.50509783       0.48455995      -0.50468151       1.08734337      -0.78595755       0.33815570       0.69385436       0.18941835      -0.63437846
H       -3.56049816       0.50427586       0.82276799       0.16455671      -0.11039559       0.09869086      -0.02860566       0.03502586       0.27466255
C       -1.04137121       1.31213030      -1.73118836       0.26809483       0.42842380      -1.12828315      -0.21822041      -2.64764142      -0.75616616
H       -1.07073248       0.44349304      -2.49396379       0.11569076      -0.08055667      -0.26305258       0.29045022       1.39636445       1.02999663
H        0.94299362       0.14529510       3.67077544       0.13236594      -0.14665361       0.17816645      -0.40845865       0.00819530      -0.68507987
H       -0.01961791       1.59577518      -1.45421452       0.03484705      -0.03309383       0.01172738      -0.25204682       0.23680556      -0.45966837
H       -1.71037614       2.07325055      -2.08422477      -0.23102374      -0.03402433      -0.12557465       0.10881673       0.81407690      -0.47842014
