23
Properties=species:S:1:pos:R:3:momenta:R:3:forces:R:3 energy=-34120.59150621075 pbc="F F F"
N       -1.32770958      -2.26569644       3.48899521      -0.25472448       0.70457299      -1.27039213      -1.49284244       0.17343710       0.42708018
C       -1.42086309      -2.05574524       2.08639141       0.39989359      -0.00866701      -0.44559223      -0.51444393       0.30552945      -1.85952985
H       -0.47379299      -2.74617332       3.61973755       0.03604862       0.10478854       0.15898474       1.06955099      -0.72717547       0.66716588
H       -2.07331583      -2.92186251       3.76782077      -0.17229204       0.12020645       0.17376799       0.46667486       0.29623711      -0.17309546
C       -2.61962965      -1.12840517       1.69476988       0.57544088      -0.22173008       0.19961647       1.67595637       1.48298764       2.37012482
S       -2.11173596       0.67909892       2.01525859       0.25699121      -0.46370205      -0.01722711      -0.32363464      -1.02892359      -0.18308886
H       -3.50293558      -1.35471188       2.30719619      -0.14930670      -0.16504397       0.13822349       0.29190701       0.13824242       0.20649593
H       -2.92096935      -1.18142717       0.69738096       0.01100262      -0.00076715       0.06063308      -0.23946181      -0.11168835      -1.89450276
H       -0.83411866       0.60789341       1.49677893      -0.43760783      -0.02894657      -0.04262307      -0.88622370      -0.10682884       0.53802191
C       -1.71047912      -3.39078669       1.29565077      -0.48984275      -0.09956408      -0.62748787      -0.42923522      -0.49581814       3.23996854
H       -0.44132357      -1.56048808       1.81074732      -0.40809786      -0.00011760       0.09100644      -0.96754169      -0.61996543      -0.38462129
O       -2.15726768      -4.33687621       1.95114957       1.20092831      -0.80781973      -0.26111372       0.43775740       0.29211470      -0.46811187
N       -1.49461158      -3.42121487       0.00301532      -0.69376879      -0.95650104       0.56713144       0.85983819       1.68110895      -3.10791397
H       -1.38385872      -2.52632399      -0.54142437       0.10091910      -0.05651240      -0.01511813       0.04949051      -1.24097538       0.78348839
C       -0.99296616       0.57128430      -0.98532112       0.98373165       0.94468347      -0.18811581       0.48509391       0.08936886      -0.62851273
O       -1.49506642      -0.52155901      -1.10436747      -1.08907030       0.82599588       0.79964933       0.16996193       0.63253617       0.07900389
S        0.66022905       0.68915440      -0.10133171      -0.60859793       0.83287109       0.88200386      -0.99160431       0.06530193      -1.00934295
H        0.89011551       1.94813556      -0.46969618      -0.15408636       0.15281284       0.00331028       0.17909396       0.18715143       0.10169715
C       -1.60534230       1.89761757      -1.53486513       0.87188138      -0.89047175       0.01798939      -0.68658608      -1.31262362       0.64954245
H       -2.05549600       2.35661821      -0.59559727      -0.39235603      -0.18028814       0.06365318       0.09070539      -0.29299280      -1.40256321
H       -1.38490725      -4.28804195      -0.51367670       0.25729295       0.19240570      -0.17231083      -0.34733990       0.14729352       0.31569386
H       -2.34491606       1.64529630      -2.37589149       0.13508965      -0.05175462      -0.05137180       0.77756596       0.35565820       1.62513614
H       -0.87055976       2.57893693      -1.95236001       0.02053098       0.05354953      -0.06461761       0.32531720       0.09002392       0.10786477
