23
Properties=species:S:1:pos:R:3:momenta:R:3:forces:R:3 energy=-34120.917210132524 pbc="F F F"
N       -0.77605676       0.54019996       0.24424272      -0.28044586      -0.99054663       0.70514772      -0.64938420      -0.09578763      -0.05760945
C       -0.60213225      -0.45183182      -0.83373159      -0.38510047       1.60401657      -0.34980861       2.83717966       0.93207949       1.17931390
H        0.10882474       0.77320905       0.67444361       0.46966293       0.03606321      -0.04902465       0.67153656      -0.60339546       0.07260331
H       -1.01596233       1.45231883      -0.10919252       0.04412618       0.02252933       0.26240742      -0.50705171       0.15900388      -0.73108232
C       -0.58951647      -1.83202499      -0.19485990       0.20864036      -0.57472457      -0.30792042      -0.67767996      -1.23784518      -0.66003442
S       -2.24488191      -2.61626608      -0.00605640      -0.30179975       0.64102724      -1.12205469       0.02793086       0.25482083       0.36891281
H       -0.15864553      -1.84367424       0.79747243      -0.16976881      -0.07536082      -0.00787777       0.44105741       0.36727303       0.11613089
H        0.01749655      -2.53332330      -0.81178919      -0.07623741       0.18650890       0.05956834      -0.59076089       0.23990425       0.42321339
H       -2.66236108      -2.02440063       1.14319226      -0.18546700      -0.23924596       0.33154957       0.15822521       0.16174728      -0.31088517
C        0.86770854      -0.26530186      -1.46318254      -0.35940317       0.72283487       0.48459101      -1.19358635       0.66093892       0.22611055
H       -1.33642264      -0.33951257      -1.61276062       0.05948540      -0.07675104      -0.26690965      -0.58937329      -0.10720370      -0.27380967
O        1.64105605       0.56267154      -1.02017477      -0.08938619      -1.85177329       0.35471622       0.09329997      -0.02069695       0.31149575
N        1.18057627      -1.02641033      -2.53839570      -0.24213588      -0.41009643       0.59928366      -2.88100338      -1.15552175       0.32000801
H        0.50068563      -1.71987887      -2.90367134      -0.12987892      -0.00325483      -0.11347888       1.11117709       0.79180855       0.27872363
C       -2.75054702      -1.08329276       3.52783646       0.81956279       0.89876214       0.59093112      -0.85942338      -1.45301252      -0.18048037
O       -3.53673713      -1.85118193       4.04566001      -0.46706303      -0.78108022      -0.60426317       0.32031989       0.85703248      -0.30826819
S       -3.29100751       0.32211144       2.60618556       0.58500547      -0.02580337       0.42787622      -0.54488869       0.39227022      -0.35624667
H       -2.09347936       0.66018055       2.09514466       0.28011479      -0.27563120       0.08176606      -0.02758534      -0.17575140      -0.00322582
C       -1.28656107      -1.28525649       3.51755308       0.15393092       0.90049086      -0.66343505       0.59560907      -0.27086037       1.84173787
H       -0.99718089      -2.18957476       4.03979886       0.05963440       0.07651708      -0.13304523      -0.33919397      -0.44615635       0.14503673
H        2.09953016      -0.97259350      -2.86382054       0.08173647       0.15604365      -0.33728354       1.55716658      -0.01967221      -0.79719919
H       -0.82088619      -0.48312987       4.08294976      -0.31161342       0.00057185       0.02826272       0.37451789       0.44690582      -0.29852611
H       -0.93344014      -1.37228303       2.52743361       0.23640031       0.05890191       0.02900167       0.67191058       0.32211858      -1.30591977
