20
Properties=species:S:1:pos:R:3:momenta:R:3:forces:R:3 Coordinates=T from=T ORCA-job=T int=T E=T -1253.934929368563=T energy=-23252.812939719224 pbc="F F F"
N       -0.73048686      -0.54976402      -0.38433538      -1.31121688       0.00244329      -0.62622661      -0.78284484       0.26324904       2.33360745
C       -0.35665674       0.22089223       0.86617183      -0.48136420      -0.53943169      -0.18130051       0.28002822      -0.08643866      -2.01238561
H       -0.39357592      -0.04051724      -1.17023620       0.58423888      -0.37163220      -0.07822735       0.55832201       0.19292869      -0.81965339
H        1.64213406      -2.13412138       2.76266856      -0.15420410      -0.48234502      -0.24375588       0.28758567      -1.91412064       3.92013461
C        0.06686028      -0.72967500       1.97728687       1.45696268       1.12814587       1.18505072      -1.62831271      -0.90070057       0.98111159
S        1.62870680      -1.61822507       1.62759971      -1.88445620       0.88443671       2.80925339      -0.66298016       1.94412145      -3.89595611
H       -0.83150694      -1.45952100       2.15908956       0.23811233       0.47345047      -0.17226938       1.74668062       1.03445959      -0.45940930
H        0.18858235      -0.17838072       2.92841486       0.06417800      -0.02627056      -0.43311480      -0.00376575      -0.17762603      -0.46199152
C       -1.38311678       1.28421484       1.27195779      -0.24751412       1.03135144      -1.12331890       0.33057845       0.88688517       1.50191748
H        0.48920856       0.86815911       0.51553320       0.25166062       0.16956474       0.28611452      -0.10600090      -0.72015971       0.46204573
O       -2.39309328       1.57097612       0.66856061      -1.38487905       0.58149402      -0.80912767      -0.05159988      -0.52048898      -0.29281798
N       -1.09338759       2.01996060       2.45554969       3.13483842      -1.51382338       0.21838673      -1.41935325      -0.87546325      -1.41778111
H       -0.31608299       1.77527285       3.05220135      -0.22715504      -0.57872215       0.22600250      -0.35743022      -0.11128025       0.15071994
C       -2.09344068      -0.85513990      -0.81490181      -0.04798039      -0.25274336       0.61437788      -0.79590007       1.15156001       0.88050591
O       -2.26205670      -0.63995180      -1.98892408      -0.71482315       0.53021633      -1.98181228      -0.75952291      -0.70444810      -0.73772955
C       -3.27912308      -1.25979945       0.16786961       0.21330329      -0.26859837       0.28485501       1.89972138      -2.11742163      -0.61375594
H       -4.28019564      -0.98589299      -0.23998309       0.06945663      -0.47217830      -0.09575658       0.98615259       0.37857604       0.37612906
H       -2.03936466       2.18158166       2.83559273       0.21463621      -0.03596058       0.10815098       1.15884912       0.51472843       0.52222705
H       -3.01091784      -0.91181892       1.18221000      -0.11002932      -0.27658781       0.23680134      -0.74278408       0.04207394      -0.39664343
H       -3.28391697      -2.41944258       0.21783147       0.33623500       0.01719118      -0.22408367       0.06257626       1.71956539      -0.02027520
