22
Properties=species:S:1:pos:R:3:momenta:R:3:forces:R:3 energy=-30132.066798868327 pbc="F F F"
O       -3.77802697       1.15825010       3.99891516       0.41265167      -0.62036935       0.08514061      -0.42094746       0.92903116      -1.74706983
H       -3.63006842       0.25973106       5.12267052       0.11508769      -0.05468941       0.57505091      -0.09068699      -0.10183314       0.08645045
O       -4.95926052       0.55644355       3.43487874      -0.29436501       0.04671276       1.30940202      -0.70591929       1.36897237      -0.63812471
H       -5.70060943       1.26088109       3.39733292       0.10612185       0.00137619      -0.15032458       1.56208301      -0.93290615       0.38434500
H       -3.31534107       1.57242320       3.20098543       0.22372053      -0.04154071      -0.02049788      -0.40436646      -0.61606079       1.07310998
H       -5.65526075      -0.50342559       4.25804247      -0.02174547       0.12385935       0.00675099       0.34637420       0.86056500      -1.43453723
S       -3.65829941      -0.79327572       5.99989480       0.68335529      -0.01351964      -0.87120270      -1.13099742      -0.52245327      -0.29011451
S       -6.20343057      -1.15109931       5.24075181      -0.08263568       0.28320956      -1.05148172       0.57583082      -0.76133714       2.52938868
C       -2.01522366      -0.42646667       6.62152418      -0.33105171       0.11143659       0.17106471      -0.16423789       2.14048958       1.38168359
H       -1.34270399      -0.12880783       5.85936682      -0.23639541      -0.01228385      -0.03249299       0.75722355      -0.24135970      -1.40467441
H       -2.11790877       0.58829181       7.18122564       0.04417286      -0.06427801      -0.08403264       0.22397278      -1.89617455      -0.21851090
C       -7.89747673      -1.30780955       4.63805350      -0.83188840      -0.45539253      -0.68489211       0.39729372      -1.78043580      -0.66780752
H       -7.78197928      -1.30919008       3.53240852      -0.41506239       0.14687172      -0.08971178      -0.67064124       0.43158826       0.52952361
H       -8.56432214      -0.53880626       5.00905449       0.12451014       0.15109634       0.01520670       0.04362946       0.39302757      -0.02988334
C       -8.37662452      -2.74797319       5.04257722       1.22144281      -0.12106499       1.13178083       1.83972514       0.29771793      -1.35050893
H       -8.03756717      -3.04602449       6.06715815      -0.18634468      -0.17371829      -0.02223531      -0.42468932       0.09125865      -0.95185030
H       -9.41628503      -2.78985912       4.89366079       0.00185068       0.10403449      -0.18192980      -1.82608569      -0.09022240       0.46910751
H       -8.01712450      -3.43524164       4.21545712       0.05945365       0.04845314      -0.22936591       0.20534663       0.35387188       1.39090002
C       -1.54678866      -1.58679597       7.46750509      -0.57709196       0.64840227       0.10900321      -0.57894951       1.06777894       0.74917221
H       -0.52632829      -1.47379191       7.82913115       0.02494185      -0.06068993       0.12916280       0.01807031       0.25240394       0.36831498
H       -2.30800013      -1.60381964       8.25256338       0.05986826       0.06079636       0.07716143       0.56297421      -0.40061170       0.68150437
H       -1.60115419      -2.53657652       6.99171024      -0.10059720      -0.10870203      -0.19155632      -0.11500231      -0.84331000      -0.91041899
