23
Properties=species:S:1:pos:R:3:momenta:R:3:forces:R:3 energy=-34120.940589752914 pbc="F F F"
N        0.13325686      -2.65375847       2.42528549       0.33713103       0.22871768       0.36981234       2.07349563       3.96616817      -0.05242616
C       -0.30152364      -1.53398055       1.57405187      -0.16686849      -0.40762807      -0.98522054      -0.05571780      -0.85152346       0.76544315
H        1.14125537      -2.81146207       2.33264495       0.03920182      -0.00855561       0.14352885      -0.73125243      -0.29095468      -0.08051255
H       -0.47219488      -3.39173734       2.42047623       0.04004578      -0.06510992      -0.00262088      -1.55041158      -2.63918686      -0.22502616
C       -0.41797835      -1.98254057       0.09059949      -0.05189467      -0.90084690      -0.42367097      -0.27689093      -0.25965363      -0.08410520
S       -1.76076141      -3.23647461      -0.13501611      -0.46370298       0.72577159       0.02398958       1.15092963      -0.11571883      -0.07355557
H        0.52113800      -2.53087582      -0.18420208      -0.33092072       0.26270061      -0.02688188      -0.62998903       0.70687509       0.08179294
H       -0.59863159      -1.12593095      -0.59634261      -0.06464684       0.10727659      -0.08479000       0.24255103      -0.54618835       0.34380180
H       -2.76930555      -2.40159748      -0.22507602      -0.27614870      -0.05770140       0.35482592      -0.72404964       0.75428972       0.16033565
C        0.75214769      -0.42289453       1.68653704       1.16582090       0.41255344      -0.27040363       1.08575499      -0.17944156       0.68407512
H       -1.26367688      -1.13931560       2.01047887      -0.02592087      -0.08947238      -0.07575024       0.47412172      -0.43017817      -0.79070961
O        1.93839720      -0.71906773       1.83073654       0.91340965       0.56143797      -0.02676112      -0.70530558       0.21238087      -0.36621404
N        0.26202034       0.84058965       1.66195126      -0.99938725       0.21580224       1.03369234       1.39422059      -0.04797115       0.12873745
H       -0.71937203       0.94504789       1.67934525      -0.20223818      -0.01817103      -0.08754903      -1.04399002       0.70930082      -0.03342444
C       -2.84017855       0.71279898       0.22648191      -0.36480222      -0.58468477       0.03321426       0.57976359       1.86397289      -1.66346743
O       -2.30391571       1.64275315       0.83054050      -0.69126933      -0.20570974      -0.84319778      -0.63062871      -1.34297800      -0.90613878
S       -3.77874133      -0.49466795       1.00599622      -0.26322699      -0.19771886       1.99533576      -0.72442429      -1.22212187       0.50112809
H       -3.89144673       0.19910439       2.12856002       0.24222029       0.00988814       0.21206221      -0.05338943       0.12679632       0.46009094
C       -2.85679525       0.62790580      -1.34590398       1.27849612       0.46830706      -0.41385623      -1.55775213      -0.14528179       1.21189737
H       -3.56044440      -0.18830454      -1.74141344      -0.03370904      -0.50083673      -0.23854868       1.13964629       1.19621038       0.67539155
H        0.84604679       1.65082866       1.90856368       0.22319825       0.07163418      -0.44987147      -0.34494627      -0.84135538      -0.23461159
H       -1.84453564       0.48587094      -1.66261930      -0.17329309      -0.13165542       0.11232267       0.71491730      -0.15834090      -0.46903417
H       -3.20239636       1.62198742      -1.68947286      -0.13149466       0.10400160      -0.34966064       0.17334656      -0.46509942      -0.03346908
