23
Properties=species:S:1:pos:R:3:momenta:R:3:forces:R:3 energy=-34120.17528136738 pbc="F F F"
N       -0.37916715      -3.26898474       1.50046999      -0.95670433      -0.89056587      -0.43508643       0.21398836       1.98109615       0.73046511
C       -1.12112112      -2.06600954       1.77432362       1.19574690      -0.17412462       0.36748372      -0.68801212       1.96376276       0.38884288
H       -0.35311660      -3.84879189       2.30624255       0.07360210      -0.30832814      -0.25381202      -0.20211387      -0.89985526       0.48236775
H       -0.59315177      -3.70935354       0.64434471      -0.02519611       0.11752187      -0.24356821      -0.53222114      -0.71925902      -0.75353801
C       -0.27258138      -1.03495606       2.57753550       0.93638306      -0.06113664       0.09779352       3.10735846      -1.13236690       2.53182244
S       -0.56730313       0.70388073       2.30374903      -0.01150392       1.16773064       0.67323955      -0.77748450       0.44372512       1.03808103
H        0.87140294      -1.21167950       2.46813033      -0.26796121       0.28188200      -0.10891990      -1.87316215      -0.02770821      -0.58322912
H       -0.28386300      -1.17683273       3.75264047      -0.18936059       0.19925289      -0.37017998      -0.79562366       0.12156934      -2.20002389
H       -0.23983413       0.75002989       1.03292203       0.09560087       0.06200231      -0.09509066       0.28982403       0.01047706      -0.64822564
C       -2.47627009      -2.18727212       2.57389809      -0.26654294      -0.45278827      -0.36085940      -0.65546852      -0.88748169      -0.54692388
H       -1.40111899      -1.50099098       0.86483157      -0.09417062      -0.30262887       0.11050014       0.38917100      -0.74100780      -0.18847436
O       -2.61485402      -2.99919923       3.48503859       0.34849280       0.24946304       1.31588238       0.37749997       0.69828683      -0.52745217
N       -3.54048982      -1.41084543       2.13188553       0.14369395      -0.43750908      -0.91862224      -0.62753618      -0.11462688       0.07332905
H       -3.48129335      -0.72161831       1.31707887      -0.05417678       0.30966160      -0.03944341      -0.15281194      -1.65062058       1.65570784
C       -1.74416587      -0.06752725      -1.57111101       0.02073247       0.05081046      -0.46841378       4.10860631       2.99598961      -3.46906535
O       -2.56139853      -0.40553519      -0.82984736       0.38534226      -0.23939395      -0.08306137      -3.30956244      -2.15427208       3.29714847
S        0.07093058      -0.30396476      -1.29412419      -0.29079094       1.03205004       0.88706661       0.14631312      -0.09082325      -0.25334055
H        0.54472469       0.84782859      -1.85443862      -0.27147023      -0.06062248       0.12516070      -0.51584935      -0.61754376       0.22685190
C       -2.06483637       0.85770723      -2.72080870      -0.69430953      -0.50318827      -0.50107068      -1.08633661      -1.40322757      -1.57742333
H       -3.14267410       0.71209771      -2.92449979      -0.05549832       0.01491885       0.14954505       0.31235039       0.81962520       0.36737126
H       -4.47265358      -1.72631142       2.56443028       0.18021909       0.08325103       0.08971754       2.03022122       1.09174812      -1.19179034
H       -1.60757278       0.72761357      -3.70262446      -0.04525154      -0.30127234       0.01895588       0.54755044      -1.17561209       0.07154071
H       -1.73427397       1.85036942      -2.56809934      -0.15687614       0.16301455       0.04278262      -0.30670026       1.48812521       1.07595921
