22
Properties=species:S:1:pos:R:3:momenta:R:3:forces:R:3 energy=-30131.848304026607 pbc="F F F"
O       -2.49097617      -0.53934041       5.18597806       0.74252292      -0.41844521      -0.57297774       1.35424260       0.16918673       0.60051783
H       -3.51587690      -0.83200306       6.05880093      -0.14678255      -0.01892454      -0.08868184      -1.57264474      -0.21608294       0.89330272
O       -2.90157971      -0.20675069       3.89470189       1.19761980      -0.33911769      -0.11130486      -0.72045767       1.41570122      -1.35864925
H       -2.85817650       0.79776839       3.80736286       0.12597875       0.30569494      -0.02793091       0.10266417      -1.11026061       0.34288257
H       -1.56860706      -0.81848653       5.03351294       0.13554027       0.05406745       0.21831856       0.39578244      -0.25881332       0.18352515
H       -4.38760600      -0.34716441       4.18338062       0.16665976      -0.15258273       0.14559524      -1.61822844      -0.18907804      -0.60561580
S       -4.84849278      -1.03226292       6.68408410      -2.18491020       0.12414795       0.48857378      -0.06482816       0.28373273      -1.62375016
S       -5.77884862      -0.57465238       4.37386018       0.34684251      -0.23971937      -0.07177750       0.78774011       0.13193577      -0.03468415
C       -4.24799584      -1.17882552       8.34552303      -0.23395582       0.53684659       0.55210118       1.76971292      -0.54810017       0.11208396
H       -3.36253942      -0.52408309       8.40959612       0.19563935       0.09984916       0.06875194       0.03600419      -0.49990967       0.15884848
H       -4.93743263      -0.75766369       9.02009660      -0.05675974      -0.28811189       0.12030483      -1.27138758       0.63257515       0.89945620
C       -6.33090189      -0.42988780       2.60235082      -0.07934577       0.12420225      -0.47415357       0.91608268       2.06870961       1.00891232
H       -6.42357198      -1.41087553       2.26188296       0.00428167       0.23806280      -0.15659867       0.15188721      -1.71454656      -0.99558032
H       -5.53015104       0.16914994       2.13418544       0.14120246      -0.50273887       0.11288901      -0.23437014      -0.70314944      -0.35320699
C       -7.62681048       0.32292305       2.49585359       0.41968369       0.13729159      -0.02893067      -0.72634292       2.03248072       2.38746381
H       -7.48517518       1.41076347       2.68747074       0.16710390      -0.03623532      -0.17539252       0.43504068      -0.47297820       0.06704406
H       -8.12995976       0.36532805       1.55961750      -0.25839240       0.05325806       0.24086674      -0.37390077      -0.82947886      -1.15141690
H       -8.34508728       0.07826373       3.31871371      -0.25159827       0.14651612      -0.31686733       0.29459324      -0.39070651      -0.84604502
C       -4.00137623      -2.64144638       8.68261358      -0.18225398      -0.12803696       0.37969922      -2.00422502       0.09917565       1.74160051
H       -3.46051002      -2.70381568       9.63283068      -0.15175406       0.28434291      -0.10382837      -0.21635330      -0.16202196       0.16223329
H       -4.97759757      -3.24609025       8.75160423       0.17559224       0.08975249      -0.34821571       1.27871311       1.06750178       0.04395868
H       -3.41849998      -3.14354027       7.98304036      -0.27291490      -0.07012026       0.14955867       1.28027546      -0.80587292      -1.63288140
