22
Properties=species:S:1:pos:R:3:momenta:R:3:forces:R:3 energy=-30133.202203598245 pbc="F F F"
O       -6.70228456      -1.48553282       4.28447895       0.09973415      -0.34521097       0.45075604      -0.26016747       0.08216425      -0.99999638
H       -5.89067981      -0.15226333       4.97363874      -0.02372331       0.16762019      -0.30947308       0.47546523       0.56375811       0.56706270
O       -6.57926046      -2.53404660       5.21177973      -0.70419940      -0.53491278      -0.07870240       0.17854162      -0.63391527      -1.12999396
H       -7.45009755      -2.56242812       5.56366066       0.09929526       0.12362461      -0.15764776      -1.75224733      -0.19018711       1.02395034
H       -6.72636050      -1.94666939       3.41315605       0.11683339      -0.13148213      -0.18939193       0.21629061       0.34894368       0.62934667
H       -5.17189877      -2.47844088       5.91515585      -0.11421771       0.25249820       0.18713372       0.09590570      -0.14655593       0.03709196
S       -5.16480945       0.63697158       5.87038870       0.47811972      -0.18932736       1.59202602      -1.03440639       0.26755117      -0.93607067
S       -4.03142642      -1.79930586       5.94350027       0.71493638      -0.59120076      -0.32805522       1.40030523       0.82068581       0.67448806
C       -5.95708284       2.22989575       5.38696275      -0.34157048       0.12529385      -0.69764167       0.43345869      -0.11878487      -0.37271532
H       -7.02747731       2.14454623       5.26157067      -0.00030378      -0.18423801       0.16254588      -0.44349566      -0.24788658       0.21710044
H       -5.72629964       2.89490464       6.19472540      -0.28106346       0.22749759       0.01571385      -0.30041289       0.37781519       0.90566945
C       -2.90286345      -3.15342507       5.76260055      -1.24797519       0.32343113      -0.37175915       1.40523958      -3.03756905       0.86111861
H       -3.45990655      -4.06686281       5.47238998       0.01507635      -0.10819679       0.12798296       0.10302427       0.46005189      -0.30096003
H       -2.40658930      -3.49925098       6.68349253       0.10352009      -0.11773480       0.11784001      -0.68712175       0.59902650       0.58549756
C       -1.73534163      -2.88139738       4.85003890       1.05169565       0.67944860       0.41519141       1.15818787       2.49680328      -1.93921304
H       -2.11424941      -2.76496742       3.83080695      -0.31924507       0.15261258      -0.15657902      -0.02988338      -0.14240105      -0.30147806
H       -1.34964610      -1.81557131       5.04073160       0.14370710      -0.09045504      -0.28059042      -0.23069862      -1.49515235       0.09340613
H       -0.82437344      -3.54459183       4.74014115       0.08459471       0.08802335       0.02982723      -1.30937624       0.20741335       0.87480509
C       -5.32067561       2.86335811       4.17677424       0.06217129       0.29033291       0.11608401       1.64863586       0.91465127      -1.06300867
H       -5.29179674       2.22574341       3.28428810       0.20522401      -0.03522484      -0.30402489      -0.32005131      -0.12090647       0.08116589
H       -5.76188477       3.85162520       3.84272426       0.05147450      -0.24527374      -0.22259818       0.19190335      -1.01441991       0.66884053
H       -4.23052823       3.05043047       4.39848314      -0.19408516       0.14287414      -0.11863705      -0.93909669       0.00891433      -0.17610800
