20
Properties=species:S:1:pos:R:3:momenta:R:3:forces:R:3 Coordinates=T from=T ORCA-job=T int=T E=T -1253.934929368563=T energy=-23253.27788935606 pbc="F F F"
N       -0.49198350       1.11666184       1.43275724      -0.09072618      -0.53195373      -0.13989469      -0.34265027       0.65877659      -0.46521674
C        0.08666599      -0.14297027       1.81269515      -0.14232121      -0.21558391      -0.10401951      -0.42704099       0.06402326      -0.48345727
H       -0.29735720       1.82084235       2.12984387       0.09905699       0.10989103       0.32420694      -0.03820549       0.22026852       0.24774538
H       -0.06088723       1.42636837       0.54756369      -0.20548137       0.00650992       0.11883432      -0.20407734      -0.29102884       0.46139532
C        0.06531813      -1.00767631       0.53559020      -0.44144384      -0.69729514      -0.13920839       0.59023952      -0.96417511       1.01130998
S        0.02907612      -0.19540060      -1.05516380       0.41198165      -0.46601001       0.37973172      -0.02893343       0.08152270      -0.43198388
H       -0.88390667      -1.51537647       0.59753298       0.29651161      -0.06239164       0.40879830      -0.17710724      -0.81365746      -0.49947876
H        0.93513781      -1.68706574       0.59622808       0.24607533       0.23257245       0.01307247      -0.56682336      -0.07827445      -0.36989397
C       -0.68489098      -0.84203141       2.93975617      -0.45896110      -0.27321940       0.33445049      -1.99800611      -0.95982778       1.22709000
H        1.07554521      -0.10351051       2.19935529      -0.01716953      -0.01757823       0.37436127       1.42648053       0.27477342       0.39821410
O       -0.25189504      -1.37333682       3.95774616       0.19183328       0.04862090      -0.62453231       0.96015966       0.71211922      -1.00274277
N       -2.04747040      -0.86878888       2.74810198      -0.71198755       0.23400860      -0.54774237       0.69519329       0.31106231      -0.07220519
H       -2.46761209      -0.60016513       1.90157665       0.16899110      -0.02317289       0.28491166      -0.32851502       0.71349692      -1.45254159
C       -1.76130936       0.09581249      -1.11539447       0.33146605       0.17136149      -0.21828693       1.57008019       1.16360383       1.05611408
O       -2.54173641      -0.50329584      -0.44088909       0.19756242       1.14211331       0.51593749      -0.93963861      -1.46062422       0.55461287
C       -2.15095672       1.37233558      -1.75202889       0.01492108       0.04200314      -1.17782084      -1.04935777      -2.11249256      -3.29633474
H       -2.26438626       1.27637571      -2.88370326      -0.13515741       0.19659700      -0.02322376      -0.08391739       0.10540777       1.44436216
H       -2.65330060      -1.41849513       3.31576513       0.05057142       0.26286272       0.05550105       0.17405125      -0.45908886       0.82785153
H       -1.46957510       2.09779750      -1.57636564      -0.07358071      -0.03584067       0.23111544       2.69711018       2.43693566       0.45585415
H       -3.02320452       1.68501893      -1.27012568       0.26785707      -0.12349398      -0.06619147      -1.92904186       0.39717919       0.38930488
