23
Properties=species:S:1:pos:R:3:momenta:R:3:forces:R:3 energy=-34120.68504329851 pbc="F F F"
N        0.38234484      -2.53245150       2.18308778      -0.79004211       0.80647293      -0.16441640      -0.92675763       0.35265723      -0.69403934
C       -0.49175833      -1.39031004       1.90285526      -0.28848372       0.49396610       0.63873707      -0.18371280      -0.46323147       0.82384288
H       -0.07505656      -3.20987954       2.78415998      -0.20093703       0.09235650      -0.01533635      -0.05832854       0.13420542       0.06585212
H        1.13022739      -2.12692127       2.69694146       0.17913630      -0.22114632       0.06461498       1.08722138       0.08141981       0.72018027
C        0.06166147      -0.60279104       0.75468115       0.43922245      -0.78223169       0.13372356      -1.60045660       1.07238662      -2.13578534
S        0.15092012      -1.50463227      -0.81401778       0.67523166      -0.33755950       0.42609719       0.26324309      -0.23652180      -0.53675997
H        1.08536732      -0.36616516       0.93203292       0.13425969      -0.27105872      -0.01643408       0.92468297       0.56030351       0.35845643
H       -0.53013373       0.33261953       0.45942151      -0.25500509      -0.14771198       0.10163207       0.79810560      -1.04870081       1.11264253
H       -1.11351405      -1.90111573      -0.99831417       0.05284626      -0.07480760      -0.06863670      -0.48499410      -0.02266687       0.47802589
C       -0.54000092      -0.40791640       3.09397027       0.15401721      -0.89293816      -0.64763673      -0.57426190       0.05302237       0.44761688
H       -1.46566337      -1.78512353       1.65434319       0.21456159      -0.10524114      -0.36357915      -0.59793812       0.05810347      -0.13529973
O        0.48402474      -0.27362489       3.74593181       0.01235857      -0.06819318      -0.80587314      -0.01038364       0.25279656       0.08794994
N       -1.68880849       0.29369096       3.39578478      -0.50097038       0.70486553       0.02097871       0.38772589       0.30436385       0.08187862
H       -2.55863817       0.29842110       2.85338336       0.34548416      -0.20581854       0.06602778       0.80631089      -0.11718454      -0.07139792
C       -3.06243978      -0.11158498      -0.44351136       0.25858108       0.22197105       0.30956688      -0.37757189      -1.31023292       2.75928699
O       -3.05562750       0.50210797       0.63179063      -0.53345696       0.02265693      -0.05623546       0.07861590      -0.71287376      -2.40244198
S       -3.36220920      -1.92670846      -0.36123936       0.34617838       0.51926637      -0.87405779       0.42633137       0.75758905      -1.12151460
H       -3.55736705      -1.81229076       0.92235988      -0.10491339      -0.04023913       0.09246851      -0.33936986      -0.23585130       1.04343271
C       -2.82896754       0.43978208      -1.77988305      -0.38477858       0.05664605       1.03887474      -0.45099750       2.53225017      -0.04704720
H       -2.13603982      -0.09986184      -2.38167231       0.04256358      -0.06635213      -0.12748699       1.44647825      -0.17472763       0.01785722
H       -1.54383549       1.07292944       4.05783024       0.21012024       0.12207452       0.27859408      -0.20860353      -0.81741190      -0.52273095
H       -2.65489921       1.51091792      -1.55090483       0.08545165       0.09335968       0.20974480       1.00671911      -0.49201751      -0.57560527
H       -3.62668481       0.53153800      -2.49663598      -0.09142650       0.07966213      -0.24136715      -1.41205823      -0.52767748       0.24560052
