22
Properties=species:S:1:pos:R:3:momenta:R:3:forces:R:3 energy=-30134.1279370658 pbc="F F F"
O       -5.86389947      -1.56116165       3.49911917       0.46176611      -0.36099216       0.04748817       0.66362912      -1.32810990       0.05908956
H       -4.23588250      -1.93299353       4.45149331      -0.45504339      -0.13342375      -0.02255890      -1.12614762       0.44330958      -1.14358418
O       -7.06722560      -0.82467548       3.71835325      -0.74766531       1.02803479      -0.96848595       0.06740037      -1.56862309       0.85560731
H       -6.84828538      -0.11090877       3.14701346      -0.17866059       0.10247373      -0.09246287      -0.08422858       1.38943577      -0.89964271
H       -6.10978418      -2.52836549       3.43025718      -0.12973274      -0.19406165      -0.22706929      -0.40794945       1.42873812       0.15558435
H       -6.64553421      -0.18281789       5.44207072      -0.12817797      -0.10387975      -0.00831007      -0.23171338      -0.18077632      -0.53404516
S       -3.71074220      -2.12181189       5.63357982      -0.80269858       0.37634172       0.29681554       0.75985232      -0.20947836       1.10918307
S       -5.63955810       0.08638807       6.27697107      -1.09296313      -0.14946372       2.41354462       0.61135507      -0.01670467       0.29635018
C       -2.34559781      -3.14629101       4.94413740       1.19014961      -0.22698072      -0.08979973       0.46545041      -0.98772907       0.65218389
H       -1.97416006      -3.91630083       5.73979915       0.08687047      -0.15354376       0.34502444      -1.01684499       1.22660816      -1.41957200
H       -2.79889865      -3.66018120       4.07654494      -0.01681496      -0.03381530       0.27653067       0.41079116      -0.21632716       0.43879256
C       -6.31915519       1.62130618       6.98371299       1.06532124      -0.49590030      -0.13888745      -0.82936370      -1.21298921       2.50594163
H       -5.79382929       1.70640805       7.98438333       0.23468676      -0.35988946      -0.10048968      -0.06131450       0.40514517      -1.19684160
H       -7.36543420       1.41457040       7.38036100      -0.28950772       0.20287137      -0.10725668       0.89198112       0.20800596      -0.98775399
C       -6.25136883       2.83070875       6.09249123       0.65533088      -0.34910789      -0.29279489       1.19366622      -1.55699813      -0.85960054
H       -6.70418370       2.56889957       5.14469541       0.01172825      -0.03363793      -0.20110611      -0.31050587      -0.05206408      -0.50671393
H       -6.86964543       3.56560490       6.52030793       0.09209328      -0.16399345      -0.42042332      -0.30042723       1.70631742       0.60108924
H       -5.19989081       3.08403692       5.83680234       0.13336921      -0.14201846      -0.30961428      -0.63233924       0.38329074       0.53353298
C       -1.14526053      -2.28518607       4.52899167      -0.11750692       0.46856361      -0.26260805      -1.23166382       0.41925913       0.22901851
H       -0.36252421      -2.88042449       4.07601171      -0.10958613       0.27521765       0.02081680       0.33327648      -0.13393810      -0.06882882
H       -1.45141356      -1.46904959       3.85438342       0.07532630       0.49783972      -0.02471290       0.10113634      -0.34719315      -0.09380700
H       -0.82912108      -1.79510832       5.43894531       0.06171512      -0.05063379      -0.13363958       0.73395938       0.20082077       0.27401713
