23
Properties=species:S:1:pos:R:3:momenta:R:3:forces:R:3 energy=-34120.40061519432 pbc="F F F"
N       -1.87391151      -1.35521939      -0.77822651       0.04188950       0.24654777       0.34961380       0.65552330      -0.09912919       0.88919288
C       -1.40147144       0.00735263      -0.86951821       0.25312513      -0.07331593       0.03328281      -1.05978024       0.21176949      -1.33064246
H       -2.24783838      -1.63948025      -1.69165525      -0.06439823       0.12435233       0.07493618       0.35719886      -0.24992864       0.53245258
H       -1.07961319      -1.89462454      -0.45640126      -0.29722280      -0.01300896       0.15068836      -0.31312919      -0.75046587      -0.31215593
C       -2.02312515       0.87176563       0.20855369       0.44188040      -0.13017396      -0.03877087       0.49003541       2.46575117      -0.22874264
S       -1.41513259       0.44167254       1.81828275       1.05830726      -0.57341403       0.53443006       0.16048788      -2.90792923       0.38686434
H       -3.06488372       0.69923509       0.11228277      -0.17317192      -0.12069269       0.03051487      -1.41439044       0.01459370       0.28468066
H       -1.85210860       2.01706299       0.12824273      -0.17108726       0.12510487       0.05001486      -0.13804822      -1.86192799      -0.39023942
H       -1.58536931      -0.93338984       1.47553171       0.05920765      -0.10586049      -0.11022893       0.25485057       0.93527123       1.38407800
C       -1.91230971       0.44039426      -2.25765152       0.24735642      -0.31559039       0.30177656       0.80507016       2.31975770      -1.84269142
H       -0.32383027       0.15095323      -0.80116885       0.08202864      -0.12159972      -0.22362181       0.43530649      -0.29700232      -0.24836211
O       -2.68536505      -0.15088116      -2.99466497       0.50473601      -0.45966102       1.13163524       0.22659768      -0.39223754       0.95557362
N       -1.31457728       1.62090358      -2.70774493      -0.42389130       0.19866637      -0.00106708       0.94176674      -0.96534646       3.30216241
H       -0.97598691       2.26077032      -1.98446676      -0.33411432      -0.11961650      -0.14115175       0.01159353      -0.43905067      -0.38944191
C       -0.18227152      -2.45711022       3.24577418      -0.47337927      -0.37576456      -0.61255165      -0.07464486       0.45254354      -1.24078164
O        0.58736010      -2.01885867       2.42039714      -0.52131345      -0.58945687      -1.18915466      -0.71306431      -0.38123190       0.81796622
S       -1.81266938      -3.14516753       2.75139521      -0.20611636       1.49838167      -0.03178978       0.40665722       0.82420588      -0.49722938
H       -1.90646177      -4.01166722       3.76708824       0.17011561      -0.14837320      -0.17740462       0.01721971       0.08804470      -0.01071489
C        0.05804188      -2.53757417       4.73197501       0.02276661       0.65805608      -0.49940305      -0.41603294      -0.80722028       0.33563575
H       -0.11440495      -3.58222296       5.12025311      -0.15316489       0.18582493       0.08426109       0.27220047       0.89290404      -0.43915400
H       -1.66290667       2.09483111      -3.47338474       0.04374779      -0.05310080       0.43653056      -1.17212641       0.74617088      -2.12468457
H       -0.70775213      -1.91148641       5.21100711      -0.20229580       0.16409836      -0.11202130       0.33398300       0.06887977       0.08594067
H        1.07604838      -2.22204264       4.96075163       0.09499460      -0.00140399      -0.04051940      -0.06727464       0.13157751       0.08029343
