22
Properties=species:S:1:pos:R:3:momenta:R:3:forces:R:3 energy=-30131.316428306654 pbc="F F F"
O       -3.31243218      -1.92703535       6.76647016      -0.85897269      -0.61608216       0.02028216       0.10939585      -0.45979245       0.55170976
H       -4.71575726      -1.26287412       6.84252018      -0.11902909      -0.05774423       0.16915798      -0.67873608       0.26946803      -0.07225522
O       -2.58545992      -2.05134716       5.52184074      -0.49640839      -1.13167410      -1.24271451       0.56151058      -0.62310352       0.66509885
H       -1.66076438      -2.33313086       5.80520656      -0.05408834      -0.37749183       0.14012529       0.32028657       0.09267461      -0.01709056
H       -3.43336313      -2.84851760       7.12491681       0.21512493       0.15401212       0.07195175       0.03786483       0.53551865      -0.43228897
H       -3.29605339      -1.78571022       4.89074557       0.16319625       0.05614437       0.36239821      -0.25567879       0.16571380      -0.56010610
S       -5.94429789      -0.75832636       6.33348399       1.09669701       0.80324790       1.59520218       0.51244145       0.57905644       1.01197263
S       -4.98481254      -1.11353078       3.97730190       1.06771953       0.76345658       0.26346886      -0.95302583       0.43465495      -0.37530061
C       -6.44624147       0.11028078       7.93104938      -0.54636950       0.16595442       0.02282135       0.50932944      -1.99559247       0.33731592
H       -7.52630793      -0.00696423       7.94612190      -0.04784140       0.16475101      -0.04726970      -0.31241882       0.53578931      -0.14588907
H       -6.11211134      -0.56479515       8.76779957       0.33685799      -0.17928232       0.19577309      -0.26364809       0.45336542      -0.77523655
C       -4.64291852      -1.15566622       2.14480252       0.12374963      -0.22343701      -0.09962594       0.85437530       1.38445461       0.47261533
H       -5.53820390      -1.47296457       1.65800665       0.14856617      -0.26093402      -0.16587607      -0.88240355       0.06731109      -0.30862719
H       -3.96800596      -1.97402007       2.08146422      -0.19817460       0.00310620       0.10720630       0.91405404      -0.71892977      -0.38654807
C       -4.04142129       0.18164331       1.60314621      -0.82430450       0.39912779      -0.72533403      -1.25441945      -1.13570833      -0.24278603
H       -2.98382677       0.25260596       1.85116481      -0.05479257      -0.01609897      -0.11333974       0.10387980      -0.00820401      -0.07653211
H       -4.21682439       0.11599641       0.50236041       0.28303428      -0.01539829       0.03803440       0.51501346       0.52458769       0.59894443
H       -4.56267727       1.06427884       2.01921808       0.46098718      -0.13102555       0.02439972       0.10783467      -0.41687414      -0.24253479
C       -5.87309243       1.48131628       8.19081424      -0.52648737       0.34225874      -0.33670144      -1.05063605       1.08712316       1.95911074
H       -4.98057329       1.37604163       8.80880767      -0.15145051       0.01029045       0.38576672       0.35800084       0.05390752      -0.21971264
H       -5.65077242       2.13014886       7.36560612       0.07994155      -0.13776374      -0.56887205       0.07728622       0.05312485      -0.85363996
H       -6.57479387       2.08726055       8.86690531      -0.09795624       0.28458297      -0.09685476       0.66969329      -0.87854558      -0.88822007
