20
Properties=species:S:1:pos:R:3:momenta:R:3:forces:R:3 Coordinates=T from=T ORCA-job=T int=T E=T -1253.934929368563=T energy=-23250.641969211494 pbc="F F F"
N       -1.75356890      -0.83117276       0.27840768       0.16299801       1.18624908       0.41069050      -1.45756603      -0.52795327      -0.50820469
C       -1.22551735      -0.82353126       1.65225265      -0.28660371      -0.16393545       0.25911313      -2.45339108       0.33314264       0.95241022
H       -1.82446194      -1.72603736      -0.24032010      -0.16216536       0.07425500       0.07287024       0.20272364       0.34677067       0.62757665
H       -2.72958226      -0.22910405       0.46417668      -0.15921797      -0.06399401      -0.07551288       1.87617665      -0.19354612      -0.05265794
C       -1.10743807       0.63520059       2.05167723       0.24351257      -0.12686834      -0.40123658      -0.72225815       2.98408914       0.62064540
S       -1.86998580       1.56970483       0.62105103      -0.14196816      -0.95574540      -0.39001504      -0.28582304      -0.28245181       1.13354864
H       -0.06868042       0.95095536       2.27246829       0.02466358       0.09070288       0.24496806      -0.24344783      -0.10555932      -0.68047941
H       -1.67747124       1.03430612       2.98846938       0.21755172      -0.15370659       0.05306376       0.74794984      -1.40679550      -1.48069429
C        0.05149867      -1.61171868       1.91694900       0.00307051       0.29959158       0.53553430      -1.73105872      -0.68196970      -1.18453050
H       -2.15115241      -1.13842260       2.20106012       0.06021658       0.18264230       0.07095002       1.71011925      -0.74590337       0.20417073
O        0.03521292      -2.48164739       2.75451737       0.17158142      -0.55273001      -0.28769687       0.38134807      -0.39327985       1.28379273
N        1.05820391      -1.43059977       1.04809319       0.96118610       0.17033935       0.11819649       0.02245349       0.07190752       0.45110691
H        1.07246302      -0.81003399       0.26631603       0.07421748       0.04317510       0.19681189      -0.46800157       0.63638818      -0.28625119
C       -1.17260532       0.19365551      -0.51379362      -0.76418830      -0.54787530       0.10225160      -1.15511333      -0.02494752       0.29458718
O        0.05364537       0.27513538      -0.55848225       0.34030959      -0.18566802      -0.14620919       2.63299060       0.16568702      -0.59184390
C       -1.85908750       0.19982976      -1.87803593      -0.60310339       0.54311960      -0.59775361      -2.70162034       1.07465661      -0.39360595
H       -1.32326242       0.93783436      -2.47238110      -0.17887170       0.03614686       0.09934580      -0.10752043      -0.17982715      -0.37210795
H        1.90035308      -1.76248839       1.42059549       0.31058162       0.04837116      -0.20649699       1.55928516      -0.83147317       0.23135972
H       -2.94784373       0.53832142      -1.74418738      -0.07224139      -0.01630018       0.16814651       1.44135118      -0.15277076      -0.23579901
H       -1.96561227      -0.77527731      -2.36254132      -0.20152874       0.09223129      -0.22702186       0.75140291      -0.08616455      -0.01302306
