20
Properties=species:S:1:pos:R:3:momenta:R:3:forces:R:3 Coordinates=T from=T ORCA-job=T int=T E=T -1253.934929368563=T energy=-23253.52912037589 pbc="F F F"
N       -0.39078560      -1.71384365       0.49941000      -0.16106148       0.43603246       0.57613073      -0.13806223      -0.54491466      -1.47039638
C       -0.76368958      -1.08870992       1.74928212      -0.01583633      -1.42699328       1.78830451       0.04173130       0.18656257      -0.00631106
H       -0.48781124      -2.71374536       0.53670831      -0.19980880       0.11835952       0.09770788       0.32878357      -0.69094867       0.49542511
H       -1.05397142      -1.49417567      -0.29027950       0.05691200      -0.11424628       0.18679856       1.01175764       0.18923814       1.48281847
C       -1.11848534       0.35062044       1.37533406      -0.35208179       0.34896772      -0.44323946       1.44715333      -0.46081358      -1.64529812
S       -2.48932420       0.27586801       0.17633007       0.45962114       0.78804466      -1.05825188       0.42985204       1.00987915       0.37117274
H       -0.24568132       0.84765351       0.81733030      -0.24686355       0.23200463      -0.01678671      -1.19348979      -0.84316987       0.78333735
H       -1.25330137       0.85831619       2.28723349      -0.09809788       0.27084844       0.09562560      -1.02051318       1.28154755       1.08247948
C        0.34745157      -1.01334336       2.84030843       0.92446406      -1.79336616       0.09345093      -1.25608778      -0.03849155       1.29538345
H       -1.60981721      -1.58607923       2.27492601       0.00831197      -0.05139393       0.15023104       0.21441031       0.31766421      -0.24971424
O       -0.00073925      -0.89932482       4.02337538       0.13659788       1.48936051      -0.05305946       0.73899221      -0.23236181      -1.61342156
N        1.62479852      -1.01090818       2.38227248      -0.27562926      -0.14606521      -0.34233911      -0.50061655      -0.41289040      -2.27633905
H        1.64807926      -1.20395548       1.34466317      -0.06761877      -0.02954256       0.11212571       0.20413184       0.06070577       1.62692809
C       -1.54213976       0.73112065      -1.29879369       0.06347583       0.70462473      -0.20775541      -1.32343599      -0.44541636      -0.41196652
O       -0.35530344       0.68660281      -1.42522936       0.35525855      -0.16037733      -0.48900389       1.03911519       0.14966691       0.34183663
C       -2.46452171       1.02366435      -2.43310668      -0.17285792      -0.33261840      -0.38613228      -1.90418136       0.16860041      -1.32458127
H       -2.73563978       0.15146575      -3.06597719      -0.09099149      -0.21877258      -0.09418858       0.42293060      -0.19029176       0.77206284
H        2.32823972      -1.43736556       2.95626450      -0.38605918      -0.05771215      -0.13753344       0.36185580       0.14668366       0.29185617
H       -2.10559539       1.70883024      -3.19582301      -0.11967803      -0.18780123       0.15659368       0.74103606       0.42482865       0.29027736
H       -3.44471498       1.41559186      -2.10984879       0.18194279       0.13064686      -0.02867929       0.35463637      -0.07607813       0.16444975
