22
Properties=species:S:1:pos:R:3:momenta:R:3:forces:R:3 energy=-30135.832678806943 pbc="F F F"
O       -6.88253605       5.20687808       5.20990966       0.37893398       0.85783631      -2.10237849      -1.82846582      -0.17544479      -3.28019514
H       -6.77183698       5.24321609       6.14525757       0.01138577       0.55408931       0.37568969      -0.61218434      -0.05389892       1.67874374
O        2.33530485     -24.10980380      -5.62810976       1.56332442      -2.02429322      -2.23436035      -0.48235549       0.94985792       2.63240628
H        1.61641149     -24.11747543      -4.90390154       0.22731749       0.17748015       0.51906520       1.54657626      -0.06899340      -1.75017512
H       -7.86022470       5.15896142       4.91223947      -0.06590184       0.15884509      -0.06941198       2.49179792       0.11170863       1.54630101
H        3.05780319     -23.56953932      -5.15897340      -0.33076820       0.16307656       0.36922516      -1.06422077      -0.88086447      -0.88223128
S       -6.07597582       0.83008279       5.91055692      -0.71601812       0.40119784       2.27944968      -0.08362205       0.78287466       1.10360366
S       -6.59528490       2.00090226       7.79317501      -0.22939720      -0.78132726       2.09981150      -1.15055550       0.23251860      -1.25963538
C       -4.51515843       1.68523624       5.39123172      -0.42227115      -0.83352623      -1.53738966      -1.49202931       0.49290094      -0.39891937
H       -4.20423035       2.17968210       6.30161125      -0.05509113      -0.26347506      -0.14820815       0.89078534       0.22592172      -0.00488049
H       -3.96053808       0.77003778       5.16307341      -0.04419196      -0.15741750      -0.17669996       0.83417320       0.53114498      -0.21928012
C       -5.55654506       1.80273479       9.25514337       0.96678727       0.48591920       0.21677121       2.26735091      -0.14871584       0.17589502
H       -5.28055828       0.75695195       9.32525862      -0.00789063      -0.22533553       0.32835531       0.00680013      -0.53011781      -0.02418823
H       -6.07289542       2.00702777      10.20784473      -0.11880378       0.08549028      -0.15278012      -0.33241740       0.33628541      -0.80031431
C       -4.19962528       2.60240979       9.21713013      -1.02928633       1.34262765       1.01103764      -1.93436670       0.29656014       1.36387300
H       -3.88310546       2.59540150      10.24291006       0.15674047       0.04361070       0.19720791       0.65837735      -0.30751744       0.84166080
H       -3.41200100       2.15243412       8.64702139       0.12485798       0.03216254      -0.34438480       0.33835870      -0.10371400      -0.79365587
H       -4.34454773       3.67977129       9.07491321      -0.18937382       0.40930746      -0.16280103       0.01670404      -0.20858516      -0.81301177
C       -4.69856853       2.63417060       4.12027048      -0.75787482      -0.48779709      -0.26249566      -0.87558329      -0.17301536       1.74043357
H       -5.23265642       1.92375977       3.46868746       0.25069561       0.08732235      -0.35521755       0.86234128       0.61936015      -0.96610659
H       -5.45356402       3.47083125       4.28465636       0.11983467      -0.26431060      -0.02435861       0.81975442      -0.84926230       0.30064458
H       -3.73663921       3.14346614       3.82788607       0.16699192       0.23851715       0.17387330      -0.87721825      -1.07900333      -0.19096795
