20
Properties=species:S:1:pos:R:3:momenta:R:3:forces:R:3 Coordinates=T from=T ORCA-job=T int=T E=T -1253.934929368563=T energy=-23252.51017543492 pbc="F F F"
N       -0.23952281      -1.38456489       1.63809334       1.15080694       0.06710976      -0.19001734      -2.56010704       5.70573063      -0.45011068
C        0.38819332      -0.32243766       0.77641287       0.16725108       0.37193983      -0.03372400      -0.82143998       2.57391858       3.65192509
H        0.22691786      -2.12412308       1.38709873      -0.05266023      -0.10198826       0.33238419       3.11789274      -6.15734911      -1.07312346
H       -0.30787911      -1.23206525       2.65459281      -0.28939126       0.20393515      -0.35641602       0.41026539       0.53397532      -1.20348309
C       -0.73093235       0.60944793       0.10561704      -0.81582236      -0.09497539      -0.59608517       0.47208685      -4.29460955       0.72633046
S       -1.74274960       1.00718810       1.49678090       0.45138598      -0.22231053      -0.55385402      -1.69352609       0.94107358       0.62556387
H       -1.21219075      -0.10115543      -0.61465616      -0.28599904      -0.23852256      -0.00340910      -0.17153174       0.95302373       0.43581182
H       -0.25886862       1.38316511      -0.44282107       0.26019904      -0.30341757       0.00268953       0.15495066       1.26170778      -0.24344917
C        1.30887680      -0.70410825      -0.29412960       0.48971545       0.33574497      -0.16550461       2.49370480      -0.88537741      -3.19074321
H        0.95622793       0.37432887       1.50906115       0.04332198       0.27835957      -0.02910907      -0.63313991      -0.83124357      -1.28140640
O        1.45982788      -1.82686700      -0.78910629      -0.80932061      -0.80573408      -0.48252770      -0.70438862       1.08165550       1.20538843
N        2.04386147       0.36668787      -0.87884356      -0.18650854       0.97273194       0.10218605      -1.81534147      -0.04264092       3.32593274
H        1.92062767       1.33346657      -0.55810947      -0.02541702      -0.02851815       0.06481841       0.08261998      -0.80753398      -0.32504380
C       -3.17357695      -0.12845837       1.50292578       0.78924296      -0.20899717      -1.14822559      -1.37927468       0.15333681       0.36900116
O       -4.09378970       0.11129530       2.28125776      -1.51491789       0.58356675       1.46093610       1.98321187      -0.47010118      -1.29196608
C       -3.22289260      -1.27323941       0.47307687       0.44218666      -0.83512300       1.26227790      -0.03677464       0.83270204       0.79215598
H       -2.41587958      -1.95178587       0.69504074       0.33193125       0.11168321       0.21443225       0.52105963      -0.22220972      -0.08602488
H        2.33094063       0.22522854      -1.79555700       0.13678834      -0.16433211       0.17472995       0.85573000      -0.35193533      -1.89867556
H       -3.13735440      -0.87727838      -0.53381632      -0.08692480      -0.05976853       0.07889347       0.11971014       0.02264387      -0.27942380
H       -4.16367848      -1.80070921       0.55957570      -0.19586685       0.13861543      -0.13447447      -0.39570743       0.00323290       0.19133991
