23
Properties=species:S:1:pos:R:3:momenta:R:3:forces:R:3 energy=-34118.21764412038 pbc="F F F"
N       -3.40797860       0.53967075       2.95051853       0.19006823      -0.28788736       0.56805279      -0.29665512       2.31637740       1.00276721
C       -3.59538363       0.10807829       1.57859013       0.48117528       0.43363101      -0.43444067       0.65216780       1.52205503      -0.12283961
H       -2.46751280       0.90326511       3.10259787      -0.11397397      -0.13723136      -0.13506261       0.42981732      -0.61148447      -0.20303880
H       -3.92876231       1.42968230       3.13735987       0.21708254       0.01773297       0.28418206      -0.00810017      -1.10319340      -0.50428772
C       -2.97491983      -1.23608246       1.50534803      -0.67763305       0.35066889       0.74174990      -0.35394379      -3.12267995      -1.17071629
S       -1.17242102      -1.47278186       1.56313949       0.38018385       0.41780048      -0.26007707       0.49841554       0.27968362       0.21677044
H       -3.16774913      -1.82331348       0.51910562      -0.00552045       0.09236883       0.13672533      -0.65340942       1.11802816       1.70161867
H       -3.42751606      -1.74127311       2.40425068      -0.20774625       0.10835034      -0.14830856       0.43341336      -0.10998267      -1.10624230
H       -1.08026229      -2.62968158       0.82842923      -0.03343136      -0.20320994      -0.18918141      -0.34592096       0.44586515       0.38357064
C       -3.21747014       1.19095938       0.51785923      -0.25599416      -0.44547994      -1.20430404       0.52373165       1.44861042       0.24706566
H       -4.66066782      -0.02964097       1.51356620      -0.11369880       0.27208430       0.11471554      -0.69413596      -0.18181507      -0.48658398
O       -3.65176623       2.34782204       0.64550882       0.35273978      -0.44292337       0.76086656       0.35808766      -1.97244740      -0.26705715
N       -2.33243424       0.85273697      -0.47747217      -0.39472159       0.85174845      -0.12402069       0.00663345       0.94699597      -1.23706317
H       -1.67791959       0.10110059      -0.55521659      -0.01527525      -0.04789925       0.00192678       0.00607371      -1.10790503       0.79659414
C        0.75632939      -1.85507455       0.03505738       0.66191574      -0.18600781       0.10381661       0.83900838       1.35846111       2.04918220
O        0.28083490      -1.26864316      -0.87772602      -0.83523222       0.11312837       0.22120010      -0.81468529      -0.30360931      -1.68982494
S        0.36202193      -3.66328951       0.42687114      -1.36859052      -0.79415664      -0.73870995       1.08997540       1.13361121      -0.61946240
H        1.29037602      -4.17868039      -0.42357291       0.30324441      -0.27090395       0.06275115      -0.24177544      -0.10290648       0.09350705
C        1.83177640      -1.00930586       0.88197926       1.76097978       0.30627809       0.13843972       0.20778441      -3.64394474      -0.76046455
H        2.74436345      -1.00635837       0.21174626      -0.05706439       0.09545354      -0.20130623      -0.91904777       0.30352533       0.87398124
H       -2.06907552       1.52181742      -1.21574039      -0.23232696       0.02130765       0.06460402      -0.86449116       0.14675526       0.99108320
H        2.02528848      -1.67649659       1.76453370       0.03208327      -0.04666412       0.15290988       0.17194107       1.26894188      -0.29725757
H        1.42681218      -0.02054136       1.07376527      -0.06826375      -0.21818882       0.08347097      -0.02488523      -0.02894264       0.10869737
