22
Properties=species:S:1:pos:R:3:momenta:R:3:forces:R:3 energy=-30134.207148573027 pbc="F F F"
O       -6.19775885      -0.76710806       6.83247832       0.06753226      -0.11513254      -0.39674120      -0.11288843       0.20107153       1.15986809
H       -5.40113474      -1.74742146       5.54341155      -0.02775457      -0.18187637       0.15622536       0.37624770      -0.36042669      -0.23830421
O       -6.72751572       0.02388077       5.80633323      -0.08741444       0.48168310      -0.02624230      -0.55604308       0.63304196       0.11251704
H       -7.63477932      -0.27672623       5.79000841       0.20091442      -0.18800665      -0.06791214      -0.70891410      -0.15450206      -0.19019651
H       -5.60482992      -0.13655613       7.27030660       0.13557536       0.04651636       0.28665797       0.11604498      -0.09548099       0.05349081
H       -5.86198318       0.21543943       4.21665931       0.19657553      -0.03097142      -0.12953637       0.24846155       0.35539724      -0.22124472
S       -4.38811630      -2.52670030       5.17116113      -0.29847807      -0.10172345      -0.41730097       0.17176757      -0.13664483       0.14704893
S       -4.58501473       0.16698872       3.81041546      -0.09770980      -0.93527191       0.67490570       0.67075389      -0.05513616      -0.51129385
C       -4.56584971      -3.70416655       6.54808986      -0.34859711       0.66483721      -0.34235733      -0.31203991      -0.34414551       0.10454563
H       -5.64084790      -3.89267146       6.73861142      -0.01828991      -0.14484451       0.02388599       0.42828572      -0.00329547      -0.25472513
H       -4.12854180      -4.60646404       6.12031586      -0.11866139      -0.03297616       0.16745473      -0.06032909      -0.33719173       0.20368484
C       -4.28613938       1.90298140       3.41618217      -0.39611668       0.03841259      -0.00472961      -0.35545266       1.42856705      -0.62155902
H       -5.04383721       2.27624228       2.66989009       0.02808639       0.34421406       0.16492963       0.50959867      -0.34215912       0.83729225
H       -3.31328216       2.00395480       2.88290610       0.06258087      -0.20620251      -0.15481808      -0.53202927      -0.64230871       0.18456621
C       -4.12007107       2.84441324       4.63071954      -0.63745605       0.39643407      -0.08562855       1.03405321       0.49113056      -0.27663881
H       -3.41824195       2.40987883       5.34186274       0.46889414      -0.14740663      -0.13843708      -0.03741413      -0.36952847       0.21205154
H       -3.57685616       3.74430589       4.28819312       0.49110223      -0.05823749       0.13201476      -0.33961540      -0.10001606      -0.09549105
H       -4.97002284       3.22048146       5.19946346       0.18637173       0.21257533      -0.23888851      -0.55890334      -0.45183998      -0.26053512
C       -3.88061498      -3.34598614       7.86633152      -0.07243810       0.37638140       0.50836371      -0.25619721       1.72511661      -0.34874108
H       -3.89295400      -4.15730972       8.54960393       0.13579144      -0.17401652      -0.18750419       0.18020751      -1.32948470       0.52360117
H       -2.84053521      -2.99986038       7.72656240       0.13264887      -0.29637955       0.19286443      -0.40035182      -0.08524138       0.06196596
H       -4.46641659      -2.57758763       8.42075445      -0.00315721       0.05199137      -0.11720590       0.49475759      -0.02692319      -0.58190274
