20
Properties=species:S:1:pos:R:3:momenta:R:3:forces:R:3 Coordinates=T from=T ORCA-job=T int=T E=T -1253.934929368563=T energy=-23252.542127390047 pbc="F F F"
N       -0.25017311       0.26463476      -0.50193535      -0.50884649       0.29082145      -0.56150788       0.93730410      -1.96888886      -0.06125623
C       -0.05642520       0.67907515       0.89210370      -0.91830832      -0.81252367      -0.85363532      -1.33415616      -1.03878748      -0.06302691
H        0.21381010       0.92516491      -1.17549340      -0.09605025       0.29370671      -0.21039073      -0.51330566      -0.84551871       1.20604479
H        0.17660114      -0.71871828      -0.60644989       0.01350871      -0.08739325       0.32005613      -0.93624249       1.75307986       0.66987501
C       -0.72645168      -0.28761213       1.89897558       0.61959534       0.43305398       0.41252480      -2.07404828       0.21751910      -0.49574798
S       -0.76423992      -2.09583815       1.49084678       0.98303526      -0.18787594      -0.90424939       1.47478583       0.62900260      -0.26016674
H       -1.84100722      -0.01796443       2.02988149       0.04375446       0.03347988       0.32409807       1.76059294      -0.20734382       0.21924487
H       -0.12450384      -0.20808289       2.81355486       0.18179719      -0.08294071       0.14064748      -0.70137429      -0.23412652       0.21135177
C       -0.42611553       2.12986005       1.08548500      -0.30014245      -0.09988408       0.65154926      -0.03782980      -0.80396539       1.36267114
H        0.93174478       0.70250566       1.27542561       0.07889122       0.30551758       0.02077833       2.11569166      -0.35952640      -0.29795957
O       -0.45234749       2.81144960       0.11449049       0.16025448       0.13629873       1.01054638      -0.16995285       2.32813668      -1.55492425
N       -0.53918583       2.55064249       2.42738282       0.40453533       0.65561466      -0.21925426      -0.07653946      -0.64086699      -0.55109882
H       -1.21812623       1.96745143       2.89633285      -0.06301555      -0.18427898      -0.17292178       0.12940580       0.04589006       0.50088215
C       -1.65588510      -2.18874430      -0.08722670       0.64085543       0.20346306       0.78166526      -1.10019036       3.74332748       1.46607396
O       -1.24338407      -2.78479425      -1.00202263       0.20666805       0.13541966      -1.32011312       0.99401754      -1.87522614      -2.45819139
C       -2.91059680      -1.28905640      -0.01657595      -1.45139874      -0.34838628       0.29695306       0.50154555      -1.29688418       1.11016190
H       -3.17702441      -1.61659553       1.00672115      -0.08869268      -0.39600000       0.03098897      -0.71444404       1.44329786      -0.11991799
H       -0.61528555       3.53738318       2.65267160      -0.31632335      -0.10614995       0.16336543      -0.23890415      -0.12806040      -0.54075390
H       -3.73833856      -1.55637504      -0.63701499       0.26480137       0.29717900       0.09187066      -0.29200938      -0.66299260      -0.92659628
H       -2.68367707      -0.23886913      -0.20570247       0.14508120      -0.47912239      -0.00297140       0.27565360      -0.09806582       0.58333421
