20
Properties=species:S:1:pos:R:3:momenta:R:3:forces:R:3 Coordinates=T from=T ORCA-job=T int=T E=T -1253.934929368563=T energy=-23252.916297565418 pbc="F F F"
N       -0.72348024      -0.78816105      -0.24479110      -0.86288662       0.04905001       0.02879898      -0.00091521       1.20786879      -1.72660356
C       -0.34898510       0.12484794       0.85568731      -1.00748963      -0.70382296       0.07712575       0.16780102      -0.16231275      -1.41373134
H       -0.16790482      -0.74818452      -1.11282629      -0.02701852       0.05134363      -0.24815229       0.25287062       0.26716560       0.78671700
H        1.32169504      -2.28093141       1.02894905      -0.13240663      -0.32318780      -0.04422831      -0.33950742       1.01816910       1.86026425
C       -0.35394991      -0.75609419       2.09398640       0.62981354      -0.49880154       0.92441215      -1.11237168      -1.68420756       0.26781315
S        1.28363125      -1.65078843       2.32083184       0.47352754       1.91409828       1.17531258      -0.43358694      -0.06086492      -1.39878220
H       -0.99892781      -1.65111958       1.71723805       0.63011200      -0.07182145      -0.27648961       0.45746601       1.76828909       1.80734229
H       -0.71890811      -0.20780664       3.02625386       0.27313498      -0.08835795       0.10438480       0.62544817      -1.30250752      -1.02991176
C       -1.16383748       1.51195112       0.83563094       0.59088248       0.17405768      -0.25502585       1.23879158      -1.55374038       1.14353025
H        0.71875703       0.31105271       0.68263408      -0.16589607      -0.09413702      -0.29014881      -0.10080701       0.71317911      -0.25521848
O       -2.04226409       1.77711827       0.06133619       0.08497041      -0.66388712      -0.21788028      -0.54766273       0.17017001      -0.80000347
N       -0.75556570       2.32174399       1.84900935      -0.27189566      -1.32243120       0.24688682      -2.30735850       0.83510756      -2.82610536
H       -0.13888598       1.86800435       2.43986479       0.15278328      -0.21135498      -0.10486668       1.33512759       0.22944665       2.16255617
C       -2.01055984      -0.86775656      -0.76659538      -1.91105952       0.45211322      -0.56174121      -1.44264643      -2.51896963      -0.13177591
O       -2.17686842      -1.10833332      -1.96803822       0.55995928       0.18268497      -1.34021931       0.44592693       0.81759357       1.60449576
C       -3.21778637      -1.03480244       0.21509165       0.83572027       1.31452281       1.40390498       0.03068924       0.07604858      -0.94916248
H       -3.98929551      -1.53437653      -0.37748346       0.28283428      -0.06469207      -0.41074088      -0.00920331       0.25572875      -0.26844287
H       -1.32421095       3.18754175       1.86818722       0.05633370      -0.12207298      -0.17769822       1.15718198      -0.70225394       0.99637777
H       -3.56038201      -0.03073190       0.44952158       0.04811202       0.17342597       0.24648961      -0.17813529       0.02649835       0.39048451
H       -3.16258823      -1.67750302       1.11865593      -0.23953194      -0.14672902      -0.28012436       0.76089096       0.59959149      -0.21984336
