22
Properties=species:S:1:pos:R:3:momenta:R:3:forces:R:3 energy=-30133.04903278014 pbc="F F F"
O       -3.09737279      -0.66777330       7.07670227       0.48474096      -0.21445740      -0.24299631       0.56340306       0.15780716       0.20165330
H       -4.63801035      -0.49128007       6.79149832       0.00932138       0.03852851       0.10243886      -0.10300188       0.05896033      -0.15251618
O       -2.71867250      -0.56278923       5.71759475       0.33566389      -0.02425738       0.47912622       2.47260529       0.85558818       0.40360480
H       -1.82394315      -0.09649649       5.80393669       0.00907148      -0.11414369      -0.16634360      -1.53144217      -0.67606682      -0.46934554
H       -2.99688934      -1.61660322       7.23724915      -0.15873765      -0.04262710      -0.30336349      -0.09154797      -0.43273747       0.23898591
H       -3.78652245      -0.95447522       4.56907424       0.05429434       0.33916752       0.19737808       0.59032257       0.09873336       0.43430487
S       -5.87581184      -0.63266541       6.29894449      -0.62304085       0.06588705       1.35197609      -0.23383563      -0.24308159       0.08717091
S       -4.84366011      -0.86708522       3.77713630      -0.73107334       0.04163542      -0.61231978      -1.32208384      -0.00483040       0.11712412
C       -6.56682925      -0.51540975       7.99947278      -0.48073002       0.06048746       0.10136670       0.58950275      -1.55392742      -0.12050346
H       -5.83989981      -0.84202659       8.79349054       0.04904914       0.32673318       0.02950141      -0.56724942      -0.32378867      -0.92852962
H       -6.57884853       0.53407739       8.13352019       0.35096040       0.03820880      -0.19170417      -1.06253600       1.26685846       0.47644731
C       -3.98813474      -1.32162917       2.29828291      -0.78072109       0.38428093       0.65236646       0.88574755      -1.71210206      -1.55921698
H       -4.66648864      -1.66557435       1.52983201       0.04360324      -0.15481544      -0.11525956      -1.10361946       0.48317879      -0.17595041
H       -3.38551464      -2.24694324       2.31329358       0.18028035      -0.02124798       0.04612522      -0.04288164       0.00980447       1.11301517
C       -3.06934534      -0.30744998       1.71630620      -0.12190388       0.47120803      -0.98767368       0.14911136       2.37916946      -1.96464777
H       -3.51524224       0.75981004       1.60445662      -0.09851714       0.00178307       0.33013810       0.72456682      -1.73874342       0.49979535
H       -2.12160866      -0.28035514       2.24323346      -0.07033740      -0.01252833      -0.13002775       0.19520874       0.43029732       0.46634588
H       -2.76848035      -0.59798283       0.67332780       0.21834325      -0.03748723      -0.14155143      -0.40296179       0.06431492       0.71220863
C       -7.88746346      -1.30770764       7.99670714       0.64281033      -0.69803837       0.07905005       1.90540648       0.32381716       0.66630322
H       -7.77171096      -2.34446901       7.74989358       0.19486521      -0.09740905      -0.14421364       0.70569515      -0.75082523      -0.43365467
H       -8.26985436      -1.35076307       8.98445053       0.28209090      -0.09917108      -0.40951508      -0.99314028       0.47452673       1.09028053
H       -8.53565511      -0.91875917       7.26632941       0.20996693      -0.25173704       0.07550140      -1.32726967       0.83304685      -0.70287508
