20
Properties=species:S:1:pos:R:3:momenta:R:3:forces:R:3 Coordinates=T from=T ORCA-job=T int=T E=T -1253.934929368563=T energy=-23253.346773700065 pbc="F F F"
N       -1.51811368      -1.27572195      -0.23068944      -0.93491383       0.00263196      -2.30940011      -0.39707512       2.32886216       1.31368858
C       -2.30589927      -0.45861739       0.81267362       1.34817243       0.02670886       0.00171935       1.21916211      -2.46513033       0.89726400
H       -2.17914036      -1.93766060      -0.58770953      -0.04595992      -0.22110640      -0.13520399      -0.35812917      -0.62710792      -0.41026032
H       -1.32524268      -0.59624129      -0.97404473       0.06589822       0.07931532      -0.05993810       0.00213467       0.08443781       0.15914654
C       -1.49547624       0.74253766       1.23225084      -0.55486158      -0.75517769      -0.45257242       0.75553823       1.49478269      -1.56994891
S       -0.65305397       1.43760642      -0.28044415       1.05819118       0.28358034      -0.71691950       0.28955487      -1.07828989       0.27962838
H       -0.62974640       0.51790317       1.83680580       0.07909518       0.00517251      -0.08956360       0.07143009      -0.39434668       0.39605647
H       -2.04494876       1.55894905       1.70984888       0.21165902       0.17320370      -0.05841023      -0.32824799      -0.19095601      -0.12294831
C       -2.36180844      -1.36042241       2.12896775      -0.75793477      -0.01047273       0.41346110      -0.58384037       0.64370507      -1.23817778
H       -3.32550223      -0.19415839       0.51652254       0.23876770       0.20377845      -0.20879295      -0.02714473      -0.02566074      -0.02267838
O       -3.36103909      -1.45934383       2.80491782       1.70798031      -0.50763310      -0.23621301      -0.37713844       0.02360241       0.23507667
N       -1.17979278      -1.94549466       2.39264963      -0.25504185       0.20168618       1.01671064       0.21981740       0.39482388      -0.72088569
H       -0.44878681      -1.85740419       1.71345697      -0.17181499      -0.08553947       0.29610536       0.46953249      -0.05973875      -0.28707314
C        0.78411981       0.29897612      -0.17039601      -0.73536789       0.51492929       0.90216295      -0.31209653       0.46113292       2.44802028
O        1.08895814      -0.24594545       0.89058983      -0.56433101      -0.63920061       0.61579952      -0.65731776       0.35506237      -1.57111549
C        1.74940712       0.30649104      -1.30281280      -0.51800686       1.05122618       0.27417741      -0.40718985      -0.92852461      -1.84074521
H        2.25420385       1.30540343      -1.37120860      -0.14286579       0.18068796       0.37702772      -0.04810154      -1.04999638       0.16150136
H       -1.04481696      -2.53706341       3.16991094      -0.23894960      -0.00103245       0.04299086      -0.12150736      -0.59907818       0.95140177
H        1.24007603       0.11229815      -2.30851808       0.04421059      -0.14609254       0.02954014       0.47843027       0.40630648       1.22652566
H        2.38484204      -0.59640364      -1.10315815       0.16607365      -0.35666549       0.29732013       0.11218879       1.22611332      -0.28447571
