20
Properties=species:S:1:pos:R:3:momenta:R:3:forces:R:3 Coordinates=T from=T ORCA-job=T int=T E=T -1253.934929368563=T energy=-23252.852697772953 pbc="F F F"
N       -1.92409707      -0.97210751       1.41604876      -0.25843059      -0.32876380       0.40499483       1.41367769       0.00258547      -0.88313037
C       -1.47206453       0.39135534       1.47403396       0.14762140       0.81795654       0.96883006       0.86339086       2.11078286       2.46510792
H       -2.56924212      -1.14934122       2.14090236       0.11626476       0.05313567      -0.12312279      -0.34090307      -0.18216407       1.85955477
H       -2.56642577      -0.95159816       0.66367051      -0.18156841      -0.01156140       0.17809454      -0.51026045      -0.20348103      -1.92092473
C       -0.75190656       1.01015521       0.22531966      -0.25301570      -1.52786470       0.36312783      -0.05459425      -2.88437319       0.89879143
S       -1.30727880       0.07641363      -1.18854813      -1.62297028      -0.73124455      -0.30499648      -0.41803185      -0.09791904      -1.18142527
H        0.33452371       0.99860210       0.19670573      -0.03063347       0.12112739      -0.25972678       0.24281278      -0.00179995       0.52763581
H       -1.10539390       1.97978154       0.08161453       0.01009372       0.07972402      -0.39615141      -0.53159046       1.94824648      -0.35286012
C       -0.73351944       0.74171600       2.83800212       0.55001547      -0.38425408       0.39706459       1.08825159      -1.44014812       0.88753641
H       -2.33986239       1.02349557       1.63705228       0.00838024       0.35676084       0.14340395      -0.77442312       0.47623599      -0.49154443
O       -0.53805458      -0.10483928       3.73678834       1.42221600      -0.04749564      -0.41511331      -0.61055589       2.01129293      -1.89868057
N       -0.31009759       2.07049313       2.95611322      -0.27812108      -1.09691379      -0.00342505      -1.09168410      -2.00796390      -1.40129435
H       -0.48213515       2.70314695       2.16794452       0.23966969       0.09103900      -0.42843633       0.27215418      -0.02438900       1.08588684
C       -0.63669766      -1.56251333      -0.90850861       0.96347490       0.75817580       0.27776062      -0.28932837       0.24959373       0.33773295
O       -1.23804806      -2.50453052      -1.37551290       0.26607225       0.70840343      -0.03856112       0.56139624       0.27917910       0.10706925
C        0.57306693      -1.72014880       0.00229238      -0.65919739       0.96071529      -0.73853188      -0.23108017       0.46813360       0.09572697
H        1.43222003      -1.01736111      -0.06773487       0.16374999       0.00099469       0.05868901      -0.82444155       0.00603992      -0.32412237
H       -0.03640474       2.32864962       3.88197477      -0.50184829       0.11591431      -0.36959469       0.26249927       0.59628254       0.19313806
H        0.93653321      -2.69163383      -0.29503376       0.04374905       0.04354402       0.22749224       0.24289525      -0.69450432       0.61407518
H        0.11048315      -1.63061357       1.01685163      -0.14552171       0.02060826       0.05820190       0.72981614      -0.61163056      -0.61827213
