20
Properties=species:S:1:pos:R:3:momenta:R:3:forces:R:3 Coordinates=T from=T ORCA-job=T int=T E=T -1253.934929368563=T energy=-23253.3637644226 pbc="F F F"
N        0.08695250      -1.02655460       1.63103237      -0.15189125      -0.43720576      -0.97551116       1.44061205      -0.72989675      -1.30765070
C        0.21401780       0.38526578       1.35460373      -0.36797677      -0.00901719       0.03593755       0.27377263       0.35436988      -0.46885747
H        1.02220248      -1.42211333       1.85939158      -0.09365672       0.16121095       0.27506746      -1.25270391       0.30417907      -0.04781116
H       -0.59990083      -1.22383310       2.32515750      -0.02683486      -0.31193718       0.14632341      -0.49332473       0.13824756       0.84472227
C       -1.19252750       1.11896015       1.34323395      -0.27493614       0.16644670       0.26385131       0.39833099      -0.52539301      -1.27656746
S       -2.47997199      -0.03449829       1.92766105       0.96555392      -1.70500697      -0.99408600       0.04281452       0.02470377      -0.16759745
H       -1.42999147       1.50438116       0.31173886      -0.14030791      -0.05082821       0.06710838       0.07677458      -0.68583125       0.90027189
H       -1.20388407       1.99307394       1.96863208       0.41480678      -0.00811478       0.23275275       0.11099846       0.33152664       0.63915682
C        0.93399595       0.62516777      -0.03366754      -0.45094886       1.15154300      -0.24149768      -0.83143252      -0.23079985       0.57206935
H        0.87511420       0.83513403       2.11438869      -0.06333916       0.22036052       0.16077033      -0.15526317       0.49570113      -0.26241338
O        1.54742324       1.64528881      -0.26238246       0.06590186       0.91975951       0.15775803       0.40947565       0.56529224       0.36443037
N        0.77407943      -0.34975871      -0.96373185      -0.27476867       0.57909207       0.10099305      -1.02974176      -0.83998871       0.77190983
H       -0.10306297      -0.92898037      -0.90256137      -0.05699919      -0.02422003      -0.01108381       1.59285235       0.78209931      -0.36150867
C       -2.30574582      -1.18674780       0.59195107       0.77224439      -0.17982971      -0.02035311      -0.14427457      -0.77587382      -1.40743183
O       -1.87556972      -0.84645723      -0.51032179       0.27822013      -0.66852847       0.77778788      -0.62946117      -0.21653479       1.25087166
C       -2.80262640      -2.66201606       0.76848264      -0.76384385       0.38925727       0.26553196      -1.93311715       2.62249279      -0.56548202
H       -2.87825990      -3.02994184      -0.27229356       0.03148929       0.08819196       0.29006434       0.11927330      -0.21541691       0.69455546
H        1.21690517      -0.10240901      -1.83417722       0.10976461      -0.04757528      -0.57850548      -0.23654316      -0.21214117      -0.32394370
H       -3.83332204      -2.64377453       1.26233230      -0.05531699      -0.15597670       0.22881421       1.42550468      -0.23725587      -0.53174365
H       -2.09410569      -3.17287523       1.36255077       0.08283888      -0.07762120      -0.18172344       0.81545252      -0.94948018       0.68301922
