20
Properties=species:S:1:pos:R:3:momenta:R:3:forces:R:3 Coordinates=T from=T ORCA-job=T int=T E=T -1253.934929368563=T energy=-23251.685072225613 pbc="F F F"
N       -0.50289677       0.55186739       1.47207331      -1.07327443       0.09196827      -0.21702799      -1.26707007       1.37822810       2.88353230
C       -0.05468019      -0.79578641       1.48707419       0.23166038      -0.29702695       0.92628167       1.91300654      -1.27195728      -1.40881371
H       -0.37921344       0.93044698       2.40790206      -0.01818576       0.06663849       0.12109680      -0.43036783      -0.15266670       0.53594458
H        0.05392171       1.14762260       0.90870094      -0.08418306       0.08949788       0.25441714       0.95149243      -0.24192193      -1.68244168
C        0.00166357      -1.16462427      -0.08454112       0.69440985      -0.07381828       0.72842623      -0.76969343      -2.03340244       2.08541179
S        0.02627989       0.38827772      -0.91184201       0.41641595      -1.06159695      -2.19461718       0.45290005       1.00575724      -2.10988739
H       -0.88470520      -1.80055425      -0.33332539      -0.24807088       0.13179473       0.01623672       0.37287587       0.72896403      -0.16501312
H        0.88094431      -1.78604627      -0.34282880      -0.14172474       0.11251476      -0.37206476      -0.21582678       0.54779905       0.13482647
C       -0.89985836      -1.64403940       2.45232818       0.08634302       0.01715357       0.03994734       0.24517204      -0.88305551      -2.81885219
H        1.00902030      -0.91446572       1.86055913       0.27640981       0.10568982      -0.06948348      -0.69345051       0.22401136      -0.18740609
O       -1.34239446      -1.14639972       3.43502007      -1.08639227       0.37032393      -0.39904577      -0.84769017       0.86416960       2.44054389
N       -1.14630398      -2.94428236       2.08440846      -0.34290598      -0.07539145       1.61994690       0.06233236      -0.25436997       0.15422833
H       -0.91932556      -3.31636332       1.17760489       0.10207262      -0.12298665      -0.13453829       0.20419349       0.12180780      -0.01204157
C       -1.53834602       1.17191720      -0.42994288       0.47073723      -0.43884959      -0.80619606      -0.10022692      -0.48637553       0.59892105
O       -1.68841934       2.35615163      -0.60260001       0.97601816       0.12032208       0.40526532       0.36437100      -0.08722138       0.11360747
C       -2.71289410       0.32507018       0.01637195      -0.05025827       0.18029017      -0.12439098       0.56377232       0.41754007       0.55958486
H       -3.24182022       0.10797838      -0.86616866       0.15528571       0.22483360      -0.04710011      -0.95800865      -0.58140796      -1.33692682
H       -1.72760150      -3.53531258       2.67304752      -0.05517009       0.34834750       0.40142001       0.16667849       0.45067614      -0.06440141
H       -3.31649930       1.01502803       0.59721167       0.03137839       0.29734276      -0.14431355      -0.16868980      -0.01633136       0.35907936
H       -2.51351568      -0.59333736       0.57505035      -0.34056575      -0.08704750      -0.00426115       0.15422881       0.26975715      -0.07989520
