22
Properties=species:S:1:pos:R:3:momenta:R:3:forces:R:3 energy=-30131.44056215065 pbc="F F F"
O       -2.77510389      -1.23967111       6.69594484      -0.43832569       0.44223782      -0.60012791       0.44788774       1.12798053      -0.27556957
H       -4.23388752      -0.83210012       6.75959695      -0.32794494      -0.04022917       0.14531710      -0.26980742       0.01502204       0.61307366
O       -2.38471946      -0.97571409       5.35876812       1.52805400      -0.21043987       0.00950909       0.51301354      -0.07030717       0.14665017
H       -1.41051188      -0.94191703       5.38467186      -0.31518027       0.10078028       0.04459568       0.60872722       0.20153809       0.02242690
H       -2.83271977      -2.19377906       6.69043694      -0.05952420       0.18430317      -0.07743429      -0.36140484      -1.31154859       0.28782725
H       -3.44808960      -0.95863399       4.55343842       0.11733983       0.31004810       0.12579905      -0.73876327       0.07518449      -0.16231904
S       -5.55489602      -0.71043229       6.43027028       0.50978127      -0.05098268       0.66728937      -0.31214981      -0.31420633      -1.18371133
S       -4.82458546      -0.92714212       4.09694489      -0.40839995      -0.37515626       0.22553420       0.19302599      -0.18061912      -0.19206699
C       -6.32448080      -0.44028103       8.03388226      -0.47433948      -0.16815034      -0.29014086       1.31351566       0.19752021       1.76573586
H       -6.12915043      -1.33704756       8.68708798       0.08662628      -0.09402137      -0.06018847      -0.60758245       0.70116961      -0.61792517
H       -5.69387989       0.35206459       8.45909623      -0.06530806      -0.36771439       0.15918907      -0.42118639       0.07886137       0.22001944
C       -4.47705328      -1.42835816       2.35224495      -0.35674662       0.28046606       0.17148674       0.90578198       2.08856297       0.38869527
H       -5.37775509      -1.93116320       2.14949879      -0.17060556       0.19616641      -0.09997506      -0.76910061      -1.44176471      -0.86728406
H       -3.54540140      -1.97266111       2.30786785      -0.00193547      -0.09451893       0.52477999      -0.01516887      -0.70862663      -0.09708833
C       -4.42848678      -0.14045297       1.54792751      -0.02235640      -0.62228304       0.03712987      -0.14615710       0.44335178      -1.54890037
H       -3.68093415       0.56563561       1.84752193       0.22980489       0.12535905      -0.30674415       1.03146422       0.12347442       0.58991438
H       -4.29927561      -0.17466668       0.41825859       0.15681657       0.03012856      -0.00167217      -0.29402739      -0.69014174       1.24363923
H       -5.32753684       0.41715039       1.74232783      -0.31464693      -0.00464098       0.08564158      -0.85139227       0.21883751      -0.17119384
C       -7.78115242      -0.03793467       7.85545087       0.28610409       0.15485025      -0.36769043       0.30248594       0.21835083      -0.44996548
H       -8.28344693       0.47020031       8.68296487       0.30515292       0.15883675      -0.22936357       0.45014799       0.11616302       0.16697773
H       -7.89784440       0.54451649       6.92776049      -0.09856946      -0.04083319      -0.09597721      -0.00649373       0.17201735       0.38245481
H       -8.30884153      -0.94190083       7.68789902      -0.16579788       0.08579398      -0.06695745      -0.97281659      -1.06081986      -0.26139039
