20
Properties=species:S:1:pos:R:3:momenta:R:3:forces:R:3 Coordinates=T from=T ORCA-job=T int=T E=T -1253.934929368563=T energy=-23253.624660892176 pbc="F F F"
N        0.31254685       0.84371799       0.40341829       0.47297322       0.84281612       0.27077256       0.02869833      -0.18957771       0.85053013
C        0.34257044      -0.60903993       0.22927979      -0.36883156       0.24461489      -0.18117452       2.15992308       0.71934575      -1.53613079
H        0.27140364       1.25121390      -0.49426743       0.01919632       0.25170587       0.08660944       0.26344886       0.66229588      -1.29743016
H       -0.56250828       1.15999517       0.82825258       0.22297797      -0.24954084      -0.02710230      -0.06259414      -0.56945713       0.19421255
C       -0.99005574      -1.14309067       0.52451658      -0.44295733       0.32490118      -0.93584437      -2.60574532      -2.56465220       1.05213141
S       -2.39097233      -0.32934965      -0.37242501       0.57592610       0.29364652      -0.02846515       0.13867139       0.17797207       0.81274415
H       -1.24537367      -1.18291821       1.61403848       0.00307416      -0.14853442      -0.04646817       0.26496747       0.75101650      -0.65557247
H       -1.09237104      -2.22915784       0.28086588      -0.11440960       0.32294627      -0.06555308       0.36473501       0.70081788      -0.27557456
C        1.48046320      -1.29672909       1.05510959       0.16292809      -0.23246594      -1.38700405       0.01626303      -0.43570039       1.25977099
H        0.66618062      -0.86599185      -0.85782739      -0.25748452       0.39527880       0.05292738      -0.69434536       0.47403634       1.55308712
O        1.69046000      -2.50124798       1.02336302       0.82735345      -0.37765670       0.48884541      -0.32907215       0.44765186      -0.67719376
N        2.15671603      -0.47994555       1.92338317      -0.09806920      -1.27643897       0.58525242       0.49520704       2.33298302      -0.24987161
H        1.96477815       0.56572734       1.83534172      -0.11802776       0.21153214      -0.07308676       0.26662290      -2.05902052      -0.01774673
C       -3.03488602       0.79638169       0.90164610      -1.35674462      -0.18686974       0.03423317       0.46019862       0.14467184      -0.84684471
O       -2.32466233       1.30933501       1.72139448       0.20813764      -0.42692588       0.85727314       0.92692268       0.03881145       0.83700347
C       -4.48531562       1.15271221       0.87360321       0.19939312      -0.06891375       0.26914923      -1.16548860       0.61563504       0.58567798
H       -5.07621892       0.34986627       1.27548202      -0.07702738       0.02188061       0.22317455      -0.26760000      -1.09686124      -0.10079053
H        3.09719675      -0.74462181       2.28476494      -0.09268891       0.17584522      -0.15305729      -1.40588593      -0.02095267      -0.53679997
H       -4.91472456       1.39758757      -0.10316293       0.23594995       0.08544145       0.12559182       0.29691079       0.02269901      -0.00639579
H       -4.74351865       1.93425390       1.63753899      -0.00166852      -0.20326205      -0.09607403       0.84816188      -0.15171412      -0.94480735
