20
Properties=species:S:1:pos:R:3:momenta:R:3:forces:R:3 Coordinates=T from=T ORCA-job=T int=T E=T -1253.934929368563=T energy=-23251.761651488992 pbc="F F F"
N        0.05359637       0.18515573       0.25224321      -1.00783429       0.12883410      -0.44807559      -0.83466973       0.46876923       0.36958453
C       -0.63147709       0.53022453       1.52019754      -0.08809203       0.33883973       0.27741622       1.47574401       0.10818928       1.24211693
H       -0.02565040       1.00574652      -0.35073881      -0.27447851      -0.06701304       0.09142168       0.11105909       0.02023795      -0.50533926
H        0.98313412      -0.24479105       0.46345916       0.30975885      -0.07500356      -0.26126228      -0.04040298       0.23814199       0.33078076
C       -1.10576082      -0.75304404       2.16726887      -0.21117402       0.42981309       1.02593219       0.34475544      -1.26689494      -0.54122430
S       -0.13702265      -2.02676703       1.27602711      -0.68161232      -0.43396575       0.19111070      -0.10408744      -0.30565355       0.22889138
H       -2.14566452      -0.93014305       2.03351350      -0.02693825      -0.18082430       0.24053528      -1.29625762      -0.20219144      -0.68579072
H       -1.02846640      -0.88061037       3.23165476      -0.14372509       0.07686245      -0.38238034       0.87063044       0.37228715       0.63707650
C       -1.68056865       1.58223839       1.29164271      -0.06396947      -0.53877341       0.55794844      -0.79279733      -0.63335776       1.07231522
H        0.11950765       0.91931611       2.23072937       0.04169625       0.03969194       0.05520654      -0.07408577       0.13907152      -0.59079766
O       -1.76579219       2.14417310       0.22755203       0.43560774      -1.75997809      -0.71998877       0.04677947       0.68394065      -0.82971323
N       -2.59484335       1.74097483       2.31702883       0.91860426       0.03768348      -0.56179740      -0.37290826       1.29761434      -1.37427473
H       -2.37086842       1.57648102       3.27140395      -0.10296598      -0.02295016      -0.15502701       0.45840257      -0.35890520       0.64625633
C       -0.39350455      -1.07834793      -0.35484057       1.08321508       1.37433510      -0.16994581       1.84996592      -0.91503528      -2.80392388
O        0.43427025      -1.40406509      -1.33478147      -1.11107081       0.06229249      -0.58145031      -2.01905990       0.51907301       2.62423253
C       -1.91198748      -1.13522800      -0.76361894       0.76936778       0.10727290       0.95017690       1.12889409      -0.13809636      -0.86761069
H       -2.38498287      -0.34100237      -0.19731250       0.23924188       0.26195719      -0.19604186      -0.88599074      -0.14161462      -0.20193662
H       -3.18776709       2.56706870       2.18146442      -0.23516221       0.12945116      -0.14507628       0.24190378      -0.58180308       0.09860910
H       -2.31363047      -2.15109118      -0.62681180       0.19823928       0.14129324       0.07801819       0.01671264       0.49104500       0.31938723
H       -1.91055269      -0.95005891      -1.86475063      -0.04870891      -0.04981950       0.15327848      -0.12458761       0.20518339       0.83136010
