20
Properties=species:S:1:pos:R:3:momenta:R:3:forces:R:3 Coordinates=T from=T ORCA-job=T int=T E=T -1253.934929368563=T energy=-23253.010091407745 pbc="F F F"
N        0.72666901      -0.22469349       0.70927883      -0.46021198       1.00805630      -0.75193215       0.17103299       1.30581526      -2.25527608
C       -0.13107554       0.68593415       1.44350623      -0.46185219       0.54884880      -0.10898685       1.22826946      -0.79502952      -0.26114631
H        0.60397161       0.02464251      -0.32207030      -0.23375130       0.17631112      -0.09614874       0.37720805      -0.81969619       1.88095725
H        0.60381883      -1.20674699       0.88243229       0.12807779      -0.35732238       0.24847490      -0.57570847      -0.34616343       0.36570667
C       -1.55500184       0.12314234       1.57708683      -0.58465025       0.42758402       1.06565977       0.27506104       1.84255624       2.76108861
S       -1.74878252      -1.60561496       1.87522653       0.59060140      -1.11730729       0.62883041       0.70885253      -1.01957526      -0.42176882
H       -2.02286691       0.34795724       0.64735378       0.00902057      -0.10956223       0.34214046      -1.23292565       0.43491900      -0.40132639
H       -1.93172874       0.61640237       2.54781702       0.10702481       0.05719508      -0.08423782      -0.38510013      -0.44648343      -1.87855136
C       -0.20277694       1.96829566       0.60033014      -0.61935974       0.58685833      -1.17553197       0.10244748       0.17189331      -0.83976084
H        0.32835126       0.93162985       2.43076511       0.19464397       0.04575991       0.16613234      -0.36192244      -0.22474626      -0.29519850
O       -0.07740878       1.92588390      -0.62389787       0.48640510      -0.07991907      -0.11186883      -0.03024544       0.00017335       0.96358556
N       -0.44857032       3.14510020       1.27056919       0.85034568      -1.06919700       0.56876013       0.21353760      -1.58187294       0.20326102
H       -1.07194991       2.99421284       2.05426622      -0.03031541      -0.37608239       0.05847216       0.01605886       0.62143201       0.09929886
C       -1.45027588      -2.13901125       0.16191198      -0.75776572       0.91815703       0.47018441       1.12194774      -2.62925557      -0.57273150
O       -0.60232722      -2.99416782      -0.13715478       0.11568942       0.09643431      -0.48722213      -1.69848001       2.15422845       0.86044419
C       -2.41331505      -1.60125686      -0.89067309       0.21492118      -0.03446895      -1.12380704      -0.43177569       1.60393679       1.79393005
H       -3.46710763      -1.37481890      -0.47370088       0.19464965      -0.22299207      -0.13537319       1.87481236       0.21916693      -0.45189199
H       -0.65182710       3.86925426       0.61990957      -0.35868290       0.06310470       0.24197558      -0.43880808       0.91880465      -0.21436679
H       -2.58039004      -2.37097145      -1.60205274       0.09555581      -0.26935501      -0.04094782       0.32926476      -0.55498976      -1.17168534
H       -1.82857406      -0.69781801      -1.25597869       0.51965335      -0.29210392       0.32542452      -1.26352704      -0.85511339      -0.16456842
