23
Properties=species:S:1:pos:R:3:momenta:R:3:forces:R:3 energy=-34120.91316499909 pbc="F F F"
N       -1.82481239       1.61271054      -0.61840275       0.27345717       0.82975358      -0.03765475       2.32012701       0.92938155      -1.34996235
C       -1.40273583       0.68956092       0.39766114       0.30378623      -0.05817380       0.36987043      -0.02597361      -0.77425861       0.36147267
H       -0.92405881       2.10282460      -0.90720361       0.08453641       0.10610545       0.27413347      -1.22297204      -1.14143944      -0.38274929
H       -2.14940748       2.39566475      -0.10036453       0.32458464       0.40066463      -0.11525249      -1.35725212       0.93896919       0.77200687
C       -2.65921787      -0.00609105       0.98792722      -0.34535236       0.26056508       0.31633417      -0.07824145      -0.00882755       0.20323400
S       -3.32062713      -1.32357389      -0.10626230      -0.46686403      -0.26539029       1.71459128      -1.02816768       0.79989213       0.34591497
H       -3.39787658       0.82781712       1.04046741       0.17622780      -0.16509680       0.03007726       0.13416867      -0.86113232       0.51742870
H       -2.48041732      -0.55035891       1.95368721       0.09516055      -0.17121161      -0.35020077      -0.07511970       1.08051276      -0.53677225
H       -2.19038183      -1.45119068      -0.74466708      -0.05337600       0.05249915      -0.16387499       0.66052730      -0.30301011      -0.79636565
C       -0.66832703       1.48258494       1.50574963       0.75585475       1.52799536      -0.02659545      -0.04064718      -1.63945675       0.90832055
H       -0.79311414      -0.10330850      -0.07958319      -0.10943774      -0.04463575      -0.20303741       0.32580563       0.42070505       0.38110772
O       -1.03634366       2.60660009       1.80754771       0.37724792       0.57871323      -0.75035853       0.39857519       0.01651968      -0.27064008
N        0.29312157       0.76882114       2.17681034       0.77310402      -0.45195303      -0.88504846       0.30271211       3.58430266       1.39189732
H        0.38577354      -0.20054741       2.15591920      -0.31110050      -0.26316192       0.27474606      -0.04860075      -2.04555774      -0.31153113
C       -0.80144539      -2.93910817       1.40926545      -0.15844613      -0.13609621       0.19774672      -0.77349304      -1.46184504      -0.12426451
O       -0.25179665      -2.16958058       2.13885961      -0.33701394       0.31170831      -0.43048556       0.54056054       1.14140296       0.94690132
S       -0.16717058      -3.25970087      -0.20622678      -1.38509786      -1.01607418       0.49571794      -0.73458827      -1.31457402      -0.81715486
H        0.69951420      -2.29038379      -0.19736204       0.03804326       0.06870989      -0.24593375       0.90167201       0.91251951       0.16286542
C       -2.03594973      -3.73475330       1.85800156      -0.25580697      -1.23381928      -0.61794573       0.22445673       0.46719748      -1.25070000
H       -2.54278925      -3.01786615       2.47855393      -0.04810438       0.01496791       0.09066676      -0.57433224       0.12871212       0.58959609
H        0.70932587       1.25014153       3.01685992      -0.02059343      -0.08863237       0.20797404      -0.68805486      -0.74960297      -1.41331005
H       -1.71451406      -4.57805460       2.46319607       0.11203531      -0.50114375       0.09159857      -0.03171366      -0.22782531       0.02203440
H       -2.71752750      -4.03465901       1.02029601       0.17715533       0.24370678      -0.23706864       0.87055171       0.10741613       0.65066999
