22
Properties=species:S:1:pos:R:3:momenta:R:3:forces:R:3 energy=-30134.3252621686 pbc="F F F"
O       -4.33821317       1.02567729       3.82705063       0.15621535      -0.09963515      -0.55211001      -0.45121499      -0.09036228       0.08815323
H       -4.64988915      -0.90035755       3.49391689       0.07221819      -0.30643506      -0.31404704      -0.03605789       1.12556941       0.29267315
O       -4.32862162       1.56072026       5.16395326       0.21192179      -0.15715854       1.42758380       0.79357191      -0.26873575      -0.20372093
H       -3.37077821       1.49119935       5.39426692      -0.03626891       0.07775079       0.03112878      -0.77137655       0.04628385      -0.33063626
H       -5.25470158       1.25236918       3.56436273      -0.06827893       0.04993832      -0.23938132       0.43827626       0.03670689       0.16691880
H       -5.09956518       0.16366434       5.98831151       0.00523292       0.07004915       0.10664679       0.92246179       0.96415876      -0.47332250
S       -4.84034985      -2.05652479       4.12535397      -1.45693213       1.09842787       0.57370576       0.03691581      -0.41727783       0.28797755
S       -6.04927827      -0.63593627       6.37905886       1.31065794      -0.55683443       0.34137681      -0.26845876      -1.78456578      -1.10141467
C       -3.61239048      -2.86166468       3.04835585      -0.23317155       0.50651458       0.16231125       0.23145418      -1.12645078       1.30313849
H       -3.84387900      -3.95652970       3.04308825      -0.03274782       0.00624033      -0.10719716       0.01928884       0.86341667      -0.32072619
H       -3.74872123      -2.40913268       2.10180931       0.09955520       0.19039626      -0.16756528      -0.18799703       0.00848072      -1.43527234
C       -6.42014403       0.23835001       7.84044256       0.45786705      -0.10424493      -0.22672005      -1.55905640       1.30292463       2.05386329
H       -7.52065235       0.04319790       8.01162739       0.31787575      -0.11764688      -0.25919675       1.08243716       0.11881357       0.24699353
H       -6.35709696       1.33098886       7.73643234       0.06765442       0.21041072      -0.04202912      -0.04034275      -0.08968388      -0.50672573
C       -5.56038116      -0.11684292       9.06629738      -0.52564716      -0.45425030      -0.32993663      -0.30069411      -0.45309177      -0.85499287
H       -4.53396763       0.23187431       8.93239260      -0.03694300      -0.12607006      -0.05371490       0.15694043      -0.27096671      -0.15919015
H       -5.92080275       0.37711186       9.95340802      -0.06968579      -0.00047372      -0.05828202      -0.42181343       0.19096541       0.48359904
H       -5.60186597      -1.20005632       9.19709769       0.22817249       0.23520534      -0.30111489       0.33588991      -0.05141327       0.29619789
C       -2.17220124      -2.67326719       3.50983152      -0.99174050      -0.36065561       0.10996891       0.13675055       1.15313733      -1.16034853
H       -1.50489537      -3.18168966       2.80311685       0.17787035      -0.02660337      -0.05071817       0.02730151      -0.11567054       0.13756326
H       -1.84748964      -1.60211378       3.51418732       0.31011418      -0.09170953       0.06117802      -0.41457841      -0.63431209       0.03856885
H       -2.03644060      -3.06199438       4.48635629       0.03605916      -0.04321613      -0.11188717       0.27030239      -0.50792670       1.15070331
