22
Properties=species:S:1:pos:R:3:momenta:R:3:forces:R:3 energy=-30131.594891689107 pbc="F F F"
O       -2.50518280      -1.26429961       5.39888848       0.80311296      -0.44135479      -0.51803262       2.68592792       1.45687734      -0.49749555
H       -3.44536752      -0.26437955       4.79389401      -0.18720852       0.04041424       0.15568777      -1.04195505      -0.62194224       0.55271884
O       -2.96998930      -2.25013822       6.26686246       0.99302677      -0.24511041       0.89558900      -0.99892764      -0.07196842       1.31551519
H       -2.57115294      -3.11014456       6.05521932      -0.18282039       0.03591224      -0.03258851       0.53365433      -0.38506591      -0.50443572
H       -1.69126064      -0.83637344       5.85684401       0.21341077      -0.00099965      -0.10877792      -1.64825869      -0.89397818      -0.60467178
H       -4.38119652      -1.86521643       6.10098087       0.17530141      -0.15643257       0.03256289      -1.24304230       0.32488506       0.10465735
S       -4.72094520       0.34388335       4.64752858       0.84329563       1.46964192       0.41257865       1.78116669       0.88217902      -0.52159414
S       -5.72769921      -1.40338681       5.98223340      -1.69564102      -0.97298130       0.49372262       1.11515086      -0.50461245       0.12416921
C       -3.69764700       1.72986255       3.81529682      -0.13549832      -0.33745472       0.38536034      -2.87225127       1.49172616       2.29168725
H       -2.88202016       2.05880339       4.50492824      -0.04610457      -0.01782977      -0.09491359      -0.37555850      -0.55529147      -0.79136074
H       -3.42474265       1.33994851       2.87661057       0.18518508       0.20228734       0.34683836       0.81370902      -0.28191292      -1.17178237
C       -6.35243035      -3.03273485       6.62621187      -0.80854244       0.77984395      -0.79946444       0.78687406       0.80990994       0.61888272
H       -6.24029142      -2.99390369       7.74758744      -0.26365505      -0.08710603       0.08015783      -0.65172523      -0.18801013      -1.07598770
H       -5.59900881      -3.71954434       6.25692715       0.22950122       0.21555922      -0.00393687       0.04304491      -0.49648413       0.05605445
C       -7.69656163      -3.34552214       5.99514268      -0.13059082       0.12953892      -0.31437433      -0.19352224       1.20205915       1.62718296
H       -8.52392519      -2.78595429       6.46682452       0.06892609      -0.25147468       0.07231196       0.24526206      -0.33373922       0.21556178
H       -7.71569423      -2.98938259       4.99027221      -0.21333022      -0.02943370      -0.07686163       0.14714125      -0.27069938      -1.20279157
H       -7.85562370      -4.39464452       6.09501968      -0.09506342       0.03505326      -0.03211508      -0.51394498      -0.97186613      -0.24308479
C       -4.75425585       2.89310521       3.71244453       0.20658920      -0.18519814      -1.00628524       1.46554744       0.04651586      -1.48897123
H       -5.61565716       2.64893639       3.03929784       0.08336749      -0.08661021       0.16697173       0.82556379       0.20325024       0.42868978
H       -5.13319918       3.17225879       4.66910909      -0.17887722      -0.06324170      -0.00729816      -0.46243247      -0.14640416       1.05613232
H       -4.23308953       3.82868092       3.38146435       0.13561582      -0.03302202      -0.04713188      -0.44142431      -0.69542843      -0.28907612
