20
Properties=species:S:1:pos:R:3:momenta:R:3:forces:R:3 Coordinates=T from=T ORCA-job=T int=T E=T -1253.934929368563=T energy=-23252.258532264954 pbc="F F F"
N       -0.98270272       1.03758053       0.60938504       0.41475857      -0.12021126      -0.03940874       0.68856851       0.07420637       1.19576300
C        0.13822489       0.37232072       1.34709005      -0.11030066       0.15387908       0.48581868      -2.79208326      -0.96617812      -0.16628987
H       -1.11100099       2.01284566       0.92368795       0.24994746       0.03259856       0.17257772       0.47240272      -0.41444683      -0.33716416
H       -0.67038192       0.93730005      -0.34325333      -0.14310870      -0.19879945       0.15842573       0.34303849       0.58984305      -0.58411906
C        0.28037769      -1.08417087       0.70311347       0.84166524      -0.21110799      -0.62989796       0.87672424       2.39174795      -0.71541625
S       -0.22088760      -0.82661527      -1.03893372      -1.66291348      -0.04066419       0.35660643       0.38451438      -0.55218841       0.02177320
H       -0.32765885      -1.83829532       1.16096994       0.04123639       0.17899039      -0.07248568      -0.51643169      -0.37490904       0.27253023
H        1.34413412      -1.31134283       0.79358513      -0.24230059      -0.13009446       0.12561676      -0.04361370      -0.51260364      -0.32240641
C       -0.32874471       0.11615281       2.76456661      -0.26255379      -0.56772946      -0.37830725       0.86899221      -0.03614458       0.59185940
H        1.07936166       0.90582683       1.32708760      -0.17173169       0.06463009       0.14184147       0.41404083       0.14198153       0.06708919
O        0.46255079      -0.03871497       3.67640175       1.30319300      -0.16907095      -0.30388479       0.54865968       0.18014261       0.16813841
N       -1.64840733      -0.04125431       2.95336436       0.44188003       0.89341399       0.80748822      -0.97218657       0.16000903       1.02917993
H       -2.33638025       0.16300831       2.25079155       0.01622849      -0.09502066      -0.31195444       0.00298649      -0.06068249      -0.36214015
C       -1.96993251      -0.48988436      -0.63238918      -0.65653979       0.52503307      -0.85611136       1.35279443      -1.74455215       0.58782470
O       -2.54206522      -1.16538848       0.18365316       0.52309346       0.40769813      -0.02578379      -0.50195932      -0.19731104       0.53869462
C       -2.62577375       0.43072372      -1.52947772      -0.39969554      -1.07758095       0.10288939      -1.59318531       2.56805634      -1.37277269
H       -3.40370619      -0.11108032      -2.11949419       0.19978284       0.08196444       0.18609275       0.74599731       0.40256745       0.09745371
H       -1.93435705      -0.09051354       3.93725461      -0.33694533       0.05606932      -0.07366304       0.14123774      -0.09773919      -0.76411432
H       -1.92748469       1.05881412      -2.16558493      -0.22248771      -0.05415027      -0.00065412      -0.80033368      -1.00619102       0.41183588
H       -3.20252072       1.15391091      -0.89725390       0.17679163       0.27015418       0.15479430       0.37983677      -0.54560798      -0.35771954
