23
Properties=species:S:1:pos:R:3:momenta:R:3:forces:R:3 energy=-34120.02481869535 pbc="F F F"
N       -3.57797404       0.51792755       2.92622253      -0.06547736       0.65127329      -0.10200632       0.48986098       0.64605075       0.05317683
C       -3.29319036      -0.23774852       1.72305064       0.64354337       0.51824323       0.70983583      -0.17696375      -0.51958859       0.55449319
H       -2.93608418       1.31921267       2.93508046       0.03470761      -0.13387285      -0.05301830       0.12281102      -0.31635979       0.18579499
H       -4.45862779       0.98514957       2.78878014       0.18970428       0.15053775       0.12525016      -0.65296489       0.06719346       0.02634192
C       -2.05968998      -1.15153470       1.98523286      -0.47966694      -1.03995764       0.62085459       0.58073062      -0.06961111      -2.60752606
S       -0.42971168      -0.12284748       1.76904277      -0.90575101      -0.27257896       1.00078419      -1.77312303      -1.96349785      -0.11098760
H       -2.01271081      -2.09510442       1.31213261      -0.06920495      -0.12467546      -0.06295224      -0.23311415       2.02110767       0.87857151
H       -2.07349954      -1.53600513       2.96880896       0.26688656      -0.07722405       0.02144729      -0.05314965      -0.04291074       1.50442588
H        0.21150300      -1.29439728       1.93691861       0.03093888      -0.05212083      -0.19580968       0.86579598      -0.33116207      -0.22500532
C       -2.99865361       0.73293740       0.51318806       0.62660489      -0.98140599      -0.26641084      -1.16014767      -1.95910120      -0.98492801
H       -4.21999985      -0.92603578       1.59046926       0.01721567       0.04444205       0.15033244       1.58267927       1.06990421      -0.43122476
O       -2.99924093       1.94849716       0.52736097      -0.31491650       1.17271402       0.16276451       0.16974498      -0.19819330       0.65564108
N       -2.91966009       0.01633880      -0.65942648       1.29873290      -0.28741136       0.85427695       0.16748942       1.62097144      -1.22543597
H       -2.79504168      -0.99708046      -0.71114921      -0.38231925      -0.14307367      -0.19904948      -0.02958516       0.60235637      -0.13749048
C       -0.17339169      -2.34585841      -0.36941788      -1.86586535       0.74614788      -0.44791741       1.05555081       1.21977895       0.45338719
O       -1.29168365      -2.68933136      -0.61409088      -0.72989113       0.02726446      -0.68558012      -0.45677105      -0.39326534       0.05159056
S        0.82976319      -3.16640810       1.01930433       1.30580138       0.89436346      -0.92313703      -1.07403408       1.14393403      -0.74465016
H       -0.29495400      -3.41334198       1.71198712      -0.30646979      -0.11810098      -0.10561442       0.19245613      -0.28247082      -0.01310830
C        0.55399595      -1.23236326      -1.13578785       0.43405305      -0.54233670      -0.18619807      -0.26784849       0.68615198       2.67713141
H       -0.12561707      -0.43023655      -1.43494752      -0.01512722      -0.11377163      -0.06214505      -0.40095565      -0.42126900      -0.10876220
H       -2.87066758       0.63160998      -1.52320579       0.01445212       0.19414747      -0.40386320       0.06593885      -1.52467895       1.44786441
H        1.07946861      -1.59778019      -1.97488134       0.40800114      -0.32991827       0.07701614       0.85404348      -0.55864155      -1.01721168
H        1.21180194      -0.73835608      -0.38183902      -0.13595187      -0.18268495      -0.02885898       0.13155633      -0.49669901      -0.88208801
