23
Properties=species:S:1:pos:R:3:momenta:R:3:forces:R:3 energy=-34118.63602685747 pbc="F F F"
N       -3.26879038      -3.86082817       1.83523903      -0.57449676       0.49100084       0.26947397       2.99817228      -0.32915503      -2.42699122
C       -2.20067786      -2.80776237       1.38118938       0.43746911      -0.50510956       0.20328210      -0.66077733      -1.14933074       0.70689040
H       -3.10191388      -4.11453683       2.80849373      -0.01694678       0.02008615      -0.06301454       0.23074332       0.10277403      -0.01374560
H       -2.89651031      -4.71377449       1.26688754       0.02577752       0.18608993      -0.19470426      -1.10887134       1.54725003       1.26414645
C       -2.80078009      -1.98946159       0.23393604      -0.33775692       0.47290041      -0.47674190      -0.25500026      -0.04980569       0.32687810
S       -1.71475898      -0.49952762       0.04578138      -1.18434834      -0.66065778       0.06214256      -1.13102788       0.24274461       0.01158860
H       -3.87878709      -1.83195998       0.54334338      -0.01929818       0.20070448      -0.06011898       1.13488936       0.39414066      -0.70106506
H       -2.75872242      -2.54656474      -0.71280141       0.13832379      -0.20326662       0.15190664      -0.18403253       0.03535084       0.17629817
H       -2.28039868       0.27742379       1.01184358       0.24991646      -0.07926309      -0.25452238       0.15525699       0.27167966      -0.17175509
C       -0.82218759      -3.45294859       0.92113486      -0.46813349      -0.36381284       0.35224111      -2.12128639       0.93170971       0.12114191
H       -2.05439295      -2.08915402       2.18326147      -0.00175981       0.13001332      -0.08553121       0.18685779      -0.06048632       0.54698706
O       -0.89852649      -4.54040568       0.40848509       0.22433853       0.61853608       0.98368626       0.20012262      -1.78585708      -0.41500500
N        0.31544704      -2.75096938       0.95487347       1.05264985       0.33012721      -0.74760234       0.56519943       1.54395878       0.79993838
H        0.40920860      -1.75544676       1.18341724       0.12243342      -0.44652784      -0.00308407      -0.42874467      -0.60755485       0.03122414
C       -0.39864874       1.46402767       0.92591981      -0.73484842      -0.66329061       0.43853288       0.46867949      -0.87651430      -0.23705646
O        0.16856973       0.78229325       1.74783153       0.16456505       0.83273479       0.59155875       0.10549819       0.57204580      -0.36529207
S       -2.02095163       2.16550230       1.31878252       0.62989671      -0.45600245      -0.63103287       0.81170871       1.15431450       1.37821244
H       -1.49257538       3.08594368       2.29386854      -0.07925753      -0.42024514      -0.06245084      -0.99382693      -1.23410082      -1.31909680
C        0.25372400       1.90728996      -0.39790138       0.54473489       0.17671662       0.03322691      -0.20421010       1.63887000       1.51070881
H        0.77255808       2.92031359      -0.23210491       0.12796138       0.23517590      -0.15699083      -1.09030473      -1.29617071      -0.44942588
H        1.15457389      -3.20413385       0.66402063       0.11767271      -0.24448205      -0.11743536       0.38322887      -0.47898552      -0.25470534
H       -0.48089115       1.88170692      -1.19421247      -0.09404615       0.27025018      -0.33976890      -0.12283126       0.49255440      -0.26465684
H        1.01110549       1.20601614      -0.61166706      -0.32484754       0.07832304       0.10694714       1.06055617      -1.05943131      -0.25521925
