23
Properties=species:S:1:pos:R:3:momenta:R:3:forces:R:3 energy=-34119.30358081047 pbc="F F F"
N        1.93287968      -1.10167074      -1.29169277       0.76059077      -0.04443939      -0.37203999      -0.65225327      -0.96633297       0.56468052
C        0.75112224      -1.23293007      -0.42442658      -1.15910278       0.62906492       0.88655074      -0.65898514      -1.11091769      -0.01895534
H        2.64638530      -1.78493711      -0.99383144       0.05515288      -0.18044588      -0.16246068      -0.41592339       0.53680903      -0.10507935
H        2.33041497      -0.18507271      -1.12790410      -0.10101893       0.38254313      -0.02573138       0.17983696       0.16152906       0.20751749
C       -0.35508125      -0.34743092      -0.96924868       0.67877705      -0.15374294       0.94414201       0.48341769       2.61752772      -0.07136872
S       -2.05742289      -0.56206662      -0.26617413      -0.97061567      -0.78386035      -1.50815289       0.85320456       0.42545399      -0.07851708
H       -0.38963692      -0.58223717      -2.01146305      -0.11829147       0.41558754      -0.03252066      -0.49272197      -0.47572953      -0.89642650
H        0.04377899       0.74390443      -1.03670299       0.33478404      -0.09424841      -0.13903884      -1.00496674      -1.42163825       0.73107737
H       -1.94578667       0.24165886       0.85172569       0.24180141       0.11984011       0.20878210      -0.17641375      -0.64118681      -0.08652375
C        1.02872394      -1.01093288       1.05544075       1.27050067      -0.62408370      -0.01571547      -1.20428467      -1.30526567      -0.23994032
H        0.28257069      -2.25239766      -0.45755940       0.00992297      -0.15479831      -0.30692028       0.90111411       0.24666911      -0.51726103
O        2.04711158      -0.52930392       1.43384287       0.41403711       0.61967890      -0.39456723       2.41167593       1.69257998       0.88622391
N        0.09707656      -1.53069014       1.90350496      -0.01832537       0.14385523      -0.57094169      -0.52974492      -0.22701529      -0.18035828
H       -0.64392205      -2.09803308       1.47643930      -0.15463657       0.32899769       0.29321285       0.21090469       0.46699646       0.93244952
C       -3.90354345      -1.13537714       1.48094309       0.48791456       0.31740816       0.54971933      -1.36417944       3.02872828      -0.59830028
O       -4.79662951      -0.62185790       0.79643868       0.46752215      -0.39941121       0.00281254       2.20918703      -1.61290252       1.68506408
S       -2.93939563      -0.16768188       2.70104391      -1.24007713      -0.36807911       1.02426647      -0.41015443       1.11881981      -0.72030755
H       -3.57826722       0.99726626       2.38553579       0.07723131       0.27275383      -0.09679407       0.31514439      -0.51538348       0.25422606
C       -3.58777603      -2.55290277       1.62788081      -0.62938129      -0.50096256      -0.10379431      -2.38503075      -2.07095957      -1.29030561
H       -3.61515051      -2.94557540       0.61707821      -0.09955705      -0.01042591      -0.03413743       0.90905613      -0.24854597      -0.46983665
H        0.15040026      -1.31076372       2.90437014      -0.33397060       0.26538360      -0.25841207      -0.17214860      -0.34363884      -0.78495657
H       -4.48353364      -3.10719836       1.97628320      -0.00919020      -0.05879302       0.05785207       0.20621531       0.47589007       0.57071751
H       -2.74882579      -2.85093700       2.21806735       0.03592954      -0.12182312       0.05388863       0.78705001       0.16851282       0.22618017
