23
Properties=species:S:1:pos:R:3:momenta:R:3:forces:R:3 energy=-34120.600066998966 pbc="F F F"
N        0.78647157      -1.10035768       2.25223178       0.04277214       0.78163710      -0.29140307       0.67045105       0.84637427       0.03333214
C       -0.56829607      -1.55560582       2.03947073       0.89976674      -0.35370475      -0.29150638       0.66404790       0.76868933       1.13912332
H        1.02247539      -1.19351425       3.24072492      -0.18895129       0.16489669      -0.08837340      -0.28515190       0.09742372      -0.07074676
H        1.49663037      -1.65788425       1.79076141       0.03914649       0.06461745      -0.06423220      -0.36143148      -0.19553451      -0.27342799
C       -1.56858423      -0.36767360       2.29506057      -0.31699639      -0.46536562       1.05379778       0.21685663      -0.87051004      -0.67221630
S       -3.15339152      -0.72282368       1.49923243       0.76651953      -0.05489618       1.21019915      -1.08850940      -0.02339025       0.17706528
H       -1.19569936       0.53699036       1.82641842      -0.08611460       0.00240406      -0.07884703       0.37365556       0.21451843       0.15553187
H       -1.76364851      -0.19609750       3.36344705      -0.05623148      -0.11976813       0.09026546       0.23282859      -0.04543284      -0.28252187
H       -2.93849840      -0.26263163       0.24605254      -0.24955502       0.05323736      -0.04075350      -0.06384507      -0.20769393       0.55056107
C       -0.83411309      -2.66106891       3.10495164       0.17813347      -0.05896788      -0.04260160      -0.26119417      -0.00099105      -0.73194623
H       -0.64272131      -1.85455636       0.98312539       0.24312470      -0.16383814       0.12864276      -0.30516782      -0.32916644       0.24325711
O       -0.10638608      -2.75873606       4.07672316      -0.70565062       0.07467029       0.19559510      -0.08860872      -0.25057361       0.20482209
N       -1.89665065      -3.44288121       2.83461857      -0.10858139       0.01066972      -0.42185935      -2.69744015       0.15497096      -1.48601484
H       -2.64143256      -3.03371411       2.13296794      -0.03757042       0.31865949       0.13130178       2.09795570      -1.33148861       2.04115081
C       -1.52469949      -0.10671568      -1.88035735       0.43377991      -0.39644594      -0.04472139       3.16354164       1.45536161      -0.79224889
O       -2.63596346      -0.43131317      -2.08097111       0.08496695       0.26288583      -0.64871210      -2.52999163      -0.85174096       0.05268506
S       -1.09310733       1.50347346      -1.20178816      -0.89944087       0.55413488      -0.92614230      -0.88267208       0.99016682       0.54505691
H        0.18473627       1.57210448      -1.52571487       0.08888601      -0.13272199       0.03148054       0.45268139      -0.28274140      -0.15375105
C       -0.31209463      -0.86994649      -2.26209048      -0.07645040      -0.55257566       0.06216537       0.63652116      -3.65922141       0.40634599
H        0.60175303      -0.34202766      -2.46002886      -0.01833882       0.08147810       0.09462499       0.16882776       0.55563432      -0.59524059
H       -2.19156838      -4.20302289       3.47173355      -0.05400711      -0.10561344      -0.02474734       0.41574711       0.91495997      -0.51749057
H       -0.51207887      -1.69638884      -2.97986356       0.03053991      -0.04074667      -0.08177104      -0.16727096       1.21455801      -0.44032064
H       -0.00507269      -1.57287966      -1.45427044      -0.00974831       0.07535357       0.04759619      -0.36183119       0.83582729       0.46699408
