20
Properties=species:S:1:pos:R:3:momenta:R:3:forces:R:3 Coordinates=T from=T ORCA-job=T int=T E=T -1253.934929368563=T energy=-23253.067779793197 pbc="F F F"
N        0.31681403      -0.26883739       0.93167069      -0.23813347       0.37483333       0.36377041       1.38342616      -2.36129999      -1.13747014
C       -0.69549503       0.16818490       1.87705286       1.85972769      -0.15565327      -0.02687342       1.81627202       0.80337161      -0.38621408
H        1.29547045       0.02728085       1.08895723      -0.12483260      -0.07100714      -0.03828209      -1.07158148       0.17991456       0.36539164
H        0.37216251      -1.32503619       0.87494419       0.05794337      -0.16747567      -0.07157124      -0.84297954       1.53544267       0.36471064
C       -2.04320095      -0.23027811       1.37356381      -0.27247684      -0.77112677      -0.46258442      -0.90359664      -0.01688875      -0.89065313
S       -2.03087162      -1.89306028       0.58340589      -0.96719806       0.24235676       1.50261992       0.58374326       0.17715410       0.56278326
H       -2.55989394       0.52841214       0.74250171      -0.09492210      -0.05092224       0.06739297       0.69728357      -0.51145792       0.23826683
H       -2.62786435      -0.34118539       2.26232621       0.00879045      -0.02621840       0.17962039      -1.04150939      -0.26582810       0.46823835
C       -0.52134012       1.69508206       1.97181871      -0.19729776       0.77428699       0.24914546      -1.25865948       1.93821573      -0.77228081
H       -0.54524031      -0.30296913       2.84552730      -0.16140803      -0.46696243      -0.07327119       0.12364470      -0.09796715       0.54492515
O       -1.27399258       2.47304705       1.35062464       0.28614495      -0.83548425      -0.38482375       1.56826758      -1.43386590       1.36681080
N        0.57357785       2.12889641       2.70482204      -0.26462862       1.04027057      -0.74564964      -1.04296279      -0.69131052      -0.90480518
H        1.04290787       1.47228154       3.27964019       0.31366849       0.29265769      -0.03901576       0.49501696      -0.55293524       0.57087821
C       -0.90885061      -1.66194125      -0.83337149       0.12309073      -0.73624559      -0.78737649      -1.58222052       1.61530185       0.35193907
O       -0.01131479      -2.38389165      -1.08460346       0.61126328       0.82605262      -0.81868713       1.62017095      -1.65032029      -0.30174777
C       -1.23162312      -0.44563448      -1.62101739       0.10685526       0.02853487       1.12275387       0.28408265       2.34282589      -0.06850159
H       -2.26513303      -0.12033427      -1.46644738      -0.13802331      -0.12001625      -0.04200496      -0.13375062      -0.29360244      -0.36608696
H        0.70672506       3.08761878       2.95312603      -0.31332356      -0.27597196       0.11320903      -0.29248607       0.54254091      -0.16039899
H       -0.94537091      -0.41060926      -2.69541383      -0.33472666       0.09137811       0.01737340      -0.15288295      -0.60588789       0.72648060
H       -0.65261562       0.36444499      -1.10069130      -0.26051164       0.00671445      -0.12574558      -0.24927819      -0.65340245      -0.57226586
