20
Properties=species:S:1:pos:R:3:momenta:R:3:forces:R:3 Coordinates=T from=T ORCA-job=T int=T E=T -1253.934929368563=T energy=-23251.90012388764 pbc="F F F"
N       -0.48910037       0.27903578       1.97701702      -0.93271843       1.53118656      -0.25352599      -0.54467486      -0.37487988       2.57248216
C        0.33643280      -0.52721556       1.11788939       0.46389285      -0.51544144      -0.31192398       0.69314492       1.18494213      -1.79693890
H       -0.12242495       0.19931598       2.96136037       0.14525777       0.40238084      -0.08103592      -0.63144904      -0.07025364      -1.20374680
H       -0.52055400       1.29901954       1.77654360      -0.19272421       0.00266048      -0.00031271       0.21378489      -0.82339329      -1.77880902
C       -0.00963976       0.01454872      -0.36008541      -0.97085303      -0.18643619       1.02199194      -0.84586513      -0.83815420       0.38722205
S       -0.97246737       1.58401408      -0.19057754       1.22991471      -1.46480622      -0.46204072       1.81148736      -0.79445964      -0.58276846
H       -0.56145180      -0.72311102      -0.99948484       0.12959814      -0.16597032      -0.02180915      -0.00950164       0.50736201       0.83813965
H        0.85543236       0.18586110      -0.94831557      -0.01201999       0.01578311       0.10253791       1.20366216       0.56592935      -0.31383622
C        0.13797707      -2.04441731       1.18144386      -0.35636206      -0.00388635      -0.57826922      -0.82574499      -0.88765848       0.73717928
H        1.44855381      -0.39231364       1.25562767       0.03764994      -0.13978607       0.29276754      -0.71367908       0.31023276       0.11013848
O       -0.85723787      -2.61245383       1.64493515       0.31198081      -1.03479877       1.72835959       1.24928188       0.71216679      -0.69744951
N        1.21870438      -2.74119818       0.68905127       0.69589352       0.28821734      -0.52004751      -0.29126525       1.30491710       0.04010355
H        1.96886588      -2.24389193       0.21920023      -0.18423231      -0.17116032       0.04048767      -0.29393554      -0.33376366       0.12679517
C       -2.33991825       0.84537868       0.61522812       0.12129796       0.15942626      -0.62462587       0.24324213      -1.95109327      -0.50271517
O       -2.99405640       1.57382197       1.28235954       0.17626850       0.42919685       0.02362660      -1.66576171       0.82589024       1.77722299
C       -2.86385586      -0.56471310       0.17756197      -0.41750721       0.47324264      -0.52540733       0.04127885       0.90506041       0.91902602
H       -2.22863108      -1.39822247       0.43309201       0.02759070       0.08452215       0.10167634       0.69272065      -0.08416419       0.08396043
H        1.13116690      -3.72345699       0.55246353      -0.16671058      -0.14664539       0.18337490      -0.02634716      -0.64040720      -0.03199016
H       -3.03132267      -0.55087068      -0.88530685       0.08815112       0.22245018       0.02771867      -0.15815622      -0.01458022      -0.63942558
H       -3.79568673      -0.78061351       0.70391845      -0.19436813       0.21986419      -0.14354344      -0.14222193       0.49630669      -0.04458971
