23
Properties=species:S:1:pos:R:3:momenta:R:3:forces:R:3 energy=-34120.689946439124 pbc="F F F"
N       -0.14825197       0.16340528       0.56450250       1.21115601      -0.14947931       1.02603984       0.71426821      -0.32470757       0.57154644
C       -0.59849967      -0.27513229      -0.76404851       0.62306470      -0.52894931      -0.48149566       0.08743155       0.60418373       1.07514668
H        0.77851119      -0.23543828       0.76093567      -0.07225681       0.02000532      -0.20718528      -0.42394802      -0.43985325      -0.15967524
H        0.10033821       1.15127485       0.53840412      -0.21972036      -0.30771212      -0.05698292      -0.48364127       0.08557034      -0.22813287
C       -1.49778429      -1.54118578      -0.68830625       0.27771348       0.68693583       0.15552094       0.68773198       0.16727941      -1.28890252
S       -3.18408080      -1.12709172      -0.13491296       0.84631126       1.16832326       0.09873588       0.40673816      -0.23268694       0.24919547
H       -0.96165817      -2.38565241      -0.18170379      -0.24890869       0.26180104       0.23196513      -0.72746551       0.76224113       0.09688589
H       -1.62707359      -1.88180349      -1.74429837      -0.08204290      -0.11350612       0.13620661      -0.08623800       0.10266075       0.65700686
H       -2.85163982      -0.63199557       1.08817012       0.01851928       0.35085799      -0.13636926      -0.13197780      -0.27812142      -0.80476604
C        0.59980286      -0.45916924      -1.67501994      -0.56656220       0.54826833      -0.46761308       2.43139505       0.12707183      -0.46352926
H       -1.18639871       0.58897331      -1.08979649      -0.20104020      -0.22584594      -0.03941241      -0.33333459      -0.35293451      -0.57474875
O        1.75022940      -0.65773151      -1.26460719      -0.64788139      -0.16161146      -0.93142702      -1.22441196      -0.30238974       0.56459844
N        0.45118569      -0.32041907      -3.01700948      -0.50593148      -0.78406036       0.19870156       0.62576336      -0.90388530       0.60184038
H       -0.38425178       0.04588301      -3.38552511      -0.00050039      -0.15895012      -0.19160699      -0.90171397       0.20575786      -1.00140238
C       -2.21149692      -1.72428574       3.55323856       0.26738529       0.60163903      -1.32183610      -0.93745863      -1.39157724       0.11498202
O       -3.22753422      -2.39241686       3.58549073      -0.56147381      -0.62874201       0.06396957       1.28342760       0.92514002       0.11471504
S       -2.46026605       0.12722494       3.45761091       0.51272140      -1.18157515       1.81791474       0.50990176      -1.28428518       0.62171579
H       -1.16922148       0.44091750       3.47952631      -0.06016731       0.14159878       0.02172175       0.33514848       0.23088470      -0.06138676
C       -0.80387240      -2.37617830       3.42628754      -0.21629070       0.61945310      -0.07097320      -0.16255268       0.91933423      -0.40496650
H       -0.81366411      -3.48789268       3.30033754      -0.26548547      -0.13463319      -0.00755413      -0.46900833       0.98145592       0.32979915
H        1.25369151      -0.65645954      -3.56286014      -0.24756040       0.04213808       0.06924821      -0.82010907       0.61760110       0.07364229
H       -0.07245873      -2.07157445       4.19407228       0.01228771      -0.06518236      -0.14555109      -0.50580174      -0.14760005       0.10307503
H       -0.40913716      -1.93418122       2.50396150       0.12666339      -0.00077308       0.23798347       0.12585509      -0.07113971      -0.18663913
