20
Properties=species:S:1:pos:R:3:momenta:R:3:forces:R:3 Coordinates=T from=T ORCA-job=T int=T E=T -1253.934929368563=T energy=-23252.18148503024 pbc="F F F"
N       -0.62507441      -0.55984529       1.87940434       0.32985973       0.91967047      -1.32522441      -0.33214034       0.96077027      -2.63011009
C        0.27462698      -0.65592906       0.68579006      -0.82092903      -0.35322015       0.37260591       0.11515510       4.07006788       0.62654686
H       -0.34451548      -1.22834182       2.53133037       0.02931435       0.15081079       0.07160881       0.67315555      -1.08656991       1.76379097
H       -0.54855608       0.42562384       2.19036209      -0.15382344       0.08375087       0.05504410       0.11286752      -0.33022828      -0.37905305
C       -0.33012269       0.45166951      -0.28840348       0.41345358       1.13011155      -0.47352850      -0.43864056      -0.93443841      -0.14095867
S       -1.01452932       1.80466072       0.70158800       0.34506600      -0.44627454       0.12196649      -0.92291479      -1.04394721       0.74452024
H       -1.15277354       0.05951747      -0.93939245      -0.13942515       0.04208620       0.05571606       0.70294714      -0.02358863       0.77429616
H        0.38188505       0.86495748      -0.99445615      -0.00492115      -0.03445423       0.14001448       0.53310698       0.14324023       0.08026315
C        0.41419104      -1.92444793      -0.00585024       0.58557632      -0.03021896      -0.82316367      -0.05143378      -3.46476102       0.22358629
H        1.32729263      -0.34066104       0.93397954       0.14880577      -0.14457231       0.49205369      -0.72517014       0.13263401       0.05827671
O       -0.31272089      -2.26474918      -0.91891249      -1.39641354      -0.92967261       0.58711979      -0.18717156       0.06748638      -0.43040192
N        1.32038531      -2.83935113       0.53997592      -0.45799708       0.47631965       0.92107644      -1.40593147       0.64989430      -1.00180912
H        2.05152083      -2.53728337       1.14430879       0.27610931       0.38091886       0.09208074       0.56864089      -0.09406179       0.32965982
C       -2.45956759       0.80655010       1.41922444       0.63847941      -0.02204275      -0.59490561      -0.07174478      -0.25774119       0.74793599
O       -2.92999749       1.10343284       2.50142678       0.31079256      -0.50929823       0.21535929       0.77407062      -0.17607617      -1.31832695
C       -3.12593016      -0.27421643       0.54946874      -0.66864719      -0.67111340       0.11030911       0.68909729      -0.27352738       0.57405806
H       -2.53991364      -1.15868162       0.29759320       0.10400804      -0.09442247      -0.18916457       0.61851931       0.16581807       0.43706757
H        1.35419756      -3.74247817       0.07015226       0.14997588      -0.03530263       0.12259399       0.28503659       0.43116105       0.26951182
H       -3.43928234       0.08455263      -0.39160830       0.29557446       0.07620529       0.08470752      -0.47653812       0.98422188      -1.26107860
H       -3.99771698      -0.64615558       1.05887703       0.01514127       0.01071818      -0.03626993      -0.46091205       0.07964534       0.53222501
