20
Properties=species:S:1:pos:R:3:momenta:R:3:forces:R:3 Coordinates=T from=T ORCA-job=T int=T E=T -1253.934929368563=T energy=-23250.83710759431 pbc="F F F"
N       -0.66682241       0.40204072      -0.19829747       0.31061886      -0.18348299       0.64062108       1.02781567       0.42112605      -0.72894389
C       -0.57435364       0.73892271       1.21302015      -0.39536577      -0.05398944       0.92192709       0.64275980       1.63135171       1.02759910
H       -1.06137547       1.20512172      -0.76725687       0.11417164      -0.02341624       0.06561750       0.11415078      -1.63221204       0.43417001
H        0.42859224       0.28506532      -0.37538215      -0.01710642      -0.07937462      -0.05837571      -1.09404766      -1.03802537       0.28742053
C        0.05562186      -0.47272480       1.90778977       0.72808243      -0.23744721      -0.61347958       0.56676298       0.25071338      -2.92249107
S        0.78614586      -1.47035381       0.54132871      -1.15197572       0.59651012      -0.42738550      -1.10404600       0.66257905      -0.48792722
H       -0.67171732      -0.98470223       2.43795207       0.05415391      -0.25512753       0.07985253      -1.55839896      -1.54549468       1.17688966
H        0.85218996      -0.27606805       2.54088510       0.08491808       0.13636931       0.04219905       1.55423665       0.83192533       1.53541064
C       -1.86443674       1.27028119       1.82701017      -0.04314350      -0.38066918      -0.06861265      -0.56382531      -1.24620879      -0.37799484
H        0.09758312       1.62219393       1.35927039       0.01938290      -0.04342033      -0.18179481       0.09160411      -0.75221252      -0.42061734
O       -2.82468199       1.52160122       1.12501498       0.18999633      -0.51210089      -0.25318158      -0.21896100       0.25604606      -0.10368305
N       -1.93141630       1.32273679       3.19094917      -0.24457079      -0.11860800      -1.09904947       0.97279638       0.15117508      -0.92889977
H       -1.13743983       1.04297879       3.74588541       0.02974731       0.05403827       0.08669456      -0.35713950      -0.11973864       0.23183817
C       -0.85080696      -1.11541712      -0.55279959      -0.03410562       0.49467705       0.16144444       0.52873135       3.17356559       2.32253821
O       -0.76880969      -1.23450430      -1.75992433      -0.15438408       0.07406605      -0.67514452       0.37783319      -0.90172046      -1.78783321
C       -2.10443365      -1.74860760       0.10061650       0.77341033       0.36718184       0.99444035      -0.76608264       1.03964996      -1.62820292
H       -2.22222483      -1.65029428       1.16908126      -0.27884523      -0.30993956       0.02502443       0.05430039      -0.17933744       0.38548517
H       -2.87039427       1.23946320       3.49867798       0.09634628       0.15056312      -0.02007802      -0.69388282       0.17683442       0.94290674
H       -2.02271020      -2.77368902      -0.25410698      -0.18114786       0.17640810       0.29103407      -0.44845799      -0.17882223       0.29584980
H       -2.94324276      -1.18840422      -0.43373134       0.09981691       0.14776231       0.08824604       0.87385082      -1.00119424       0.74648571
