20
Properties=species:S:1:pos:R:3:momenta:R:3:forces:R:3 Coordinates=T from=T ORCA-job=T int=T E=T -1253.934929368563=T energy=-23251.90609379967 pbc="F F F"
N       -2.00761460      -0.78104679       0.67293795       0.14580513      -0.94655205       0.09282644       0.41931237      -1.59857032       0.11067887
C       -0.90088727      -0.72673372      -0.36994789       0.18447873      -0.70568679      -0.79569817      -1.27399218      -1.46784878      -1.01980329
H       -2.98961078      -0.46108385       0.40976041      -0.03920624       0.00453965      -0.16563720       1.46273029      -0.24550264       0.32643220
H       -1.87843861      -1.87945663       0.82663192       0.03929644      -0.19085316       0.07996261      -0.27460154       1.62811987       0.95526374
C        0.41900972      -0.92970706       0.36412478       0.45815896      -0.29853323       0.08229749       0.45875627      -1.03957009       1.06174612
S        0.02920690      -1.42258498       2.10394974       0.18791460       0.99177855      -2.22821577      -0.57505439      -0.20875851      -1.64158250
H        1.02485985      -0.04139001       0.36889407       0.29261481       0.25468319      -0.03337032       0.05920564       0.79169869       0.19790879
H        1.07647691      -1.69794535      -0.06477073       0.36984613      -0.19620329      -0.24460446      -0.43460894      -0.00223082      -0.15844785
C       -0.87245646       0.50052565      -1.24950795      -0.32433206       0.28909189       0.91397559       1.43997991      -0.43566743       0.44106412
H       -1.13164936      -1.62105060      -1.02121426       0.14852383       0.15713524       0.03138989       0.68077725       1.25280225       0.43003860
O       -0.26107697       0.43485335      -2.30407375      -0.79478927       0.51610170       0.15463327      -0.50417531       0.02558917      -0.32271564
N       -1.31693109       1.63384897      -0.70072659       0.94439277      -0.23526688       0.45787431      -1.41788912       1.52527785       1.25860476
H       -1.55074743       1.87011296       0.28836835       0.02178387      -0.14361383      -0.10046286       0.55297911      -1.30892789      -0.99601525
C       -1.43865062      -0.24176290       1.94469251      -0.39790743       0.51478797       0.16959107      -0.30134411       1.61791393      -0.01108583
O       -1.01141216       0.97419107       1.83977520      -0.96043744      -0.08504930       1.09019019      -0.63734114      -0.92542171       0.49824578
C       -2.44274814      -0.48054575       3.12711614       0.34362945      -0.18685408       0.67406932      -0.84662414      -0.13124645      -1.11069107
H       -3.47697955      -0.29287878       2.78404128      -0.10446933       0.31481131      -0.10603979       0.30127800       0.21421741      -0.05321467
H       -1.27270266       2.44071947      -1.28032305      -0.04619293       0.10974703       0.05339099       0.16364679       0.48816341      -0.79680157
H       -2.26998194       0.19268093       3.94225477      -0.16600937       0.02425763      -0.14906898       0.50623274       0.38264006       0.46171588
H       -2.43723838      -1.50840118       3.44714574      -0.30310011      -0.18832278       0.02289742       0.22073232      -0.56267846       0.36865869
