20
Properties=species:S:1:pos:R:3:momenta:R:3:forces:R:3 Coordinates=T from=T ORCA-job=T int=T E=T -1253.934929368563=T energy=-23252.328206899874 pbc="F F F"
N       -0.06049680      -0.62926699       1.74897580      -0.15283366       0.07789048       0.09303519       0.83695652      -1.15430113      -2.25076118
C        0.37656317      -0.59669943       0.24476618      -0.66220423      -0.09822117       0.68484083      -2.12024879       0.68813235       1.60998440
H        0.71462715      -1.10552900       2.26132062       0.38913186       0.34999031       0.07058631      -0.73554546       0.47470352      -0.40746373
H        0.02018301       0.35466270       1.90582837      -0.22030155       0.16909842      -0.11528434      -0.08912529       1.47942013       0.78962678
C       -0.51861061       0.54088298      -0.39918618      -0.11641074      -0.63636304      -0.59425259       1.87457132       0.51067275       0.07609360
S       -1.01137151       1.79306239       0.84808375       0.32692642      -0.45995059       0.32439286       1.36068810      -0.09748886      -0.71951587
H       -1.40738184       0.15893622      -0.83952918      -0.19750414       0.08321168       0.20952939      -0.57584161      -0.61645997      -0.31825218
H        0.04558163       1.05318414      -1.21450460       0.02898814      -0.00574840      -0.12091846      -0.33825618      -0.20431434       0.63723338
C       -0.00983174      -1.92505756      -0.39089321      -0.08991832       0.10616516      -0.76551461      -2.03952599      -0.99927676      -1.05568385
H        1.42266761      -0.29321060       0.20188830       0.00762516      -0.09214462       0.03274266       0.29663712      -0.33209717      -0.42704457
O       -1.07713226      -2.06609866      -1.02443551       0.30215067       0.24678462      -0.13553332       1.64298499       0.72166574       0.97342086
N        0.75665401      -3.01948399      -0.17000040      -0.35829133       0.72565832       1.28583108       2.05347443       0.83375174       1.44533014
H        1.58699316      -2.99397149       0.46783313      -0.37541921       0.03278262       0.02348148      -1.30778122      -0.15545803      -1.04304087
C       -2.04329593       0.75795218       1.84871953      -0.04865616      -0.49832682       0.21720545      -1.30171110      -0.29599104      -1.82872554
O       -2.06024252       0.84033628       3.02661039       0.53027116       0.03677367       0.27341635       0.12042052       0.06546974       2.42006207
C       -3.14264109      -0.02277982       1.12486591       0.60587463       0.26271782      -0.76623392       1.11705160      -1.79549325       1.38639903
H       -2.97888315      -1.05947096       1.57319678      -0.24761903      -0.50144905      -0.15354776      -0.30664551       0.98667926      -0.88067627
H        0.40670668      -3.90474548      -0.47611364       0.11323306      -0.13571973      -0.19661259      -0.13434200      -0.33449468      -0.16509803
H       -3.04256619      -0.04280729       0.04494700       0.03916098       0.14280835      -0.30965216      -0.23301840      -0.04353862      -0.12948813
H       -4.11984197       0.29866637       1.47560260       0.12579566       0.19404185      -0.05751259      -0.12074295       0.26841885      -0.11239998
