22
Properties=species:S:1:pos:R:3:momenta:R:3:forces:R:3 energy=-30132.734932768253 pbc="F F F"
O       -3.72362969      -0.25590880       2.99331471      -0.05285528       0.72749823       0.56524312       0.77083834      -1.61384465       0.65798972
H       -3.63919575      -1.15534148       4.49515009       0.13592153       0.08600301      -0.12304581       0.22441236      -0.22733561       0.42181833
O       -4.69441110       0.74238093       3.20895144      -0.31051269      -0.68298582      -0.70026434       0.36561605       0.77317748      -1.13242697
H       -4.26180738       1.45794639       2.66533053       0.11127301      -0.05376827      -0.16296213      -0.97213972      -0.42649895       0.87780583
H       -4.08011192      -0.88898328       2.32645262      -0.09667258       0.06716312       0.00098451      -0.29003850       0.68865412       0.44923529
H       -5.63037144       0.10181543       4.36663226      -0.07667989       0.04024781      -0.23414137       0.45301363       0.01025727      -0.15012157
S       -3.83655570      -1.75327533       5.75343141       0.32687776       1.48447024      -0.26015871       0.26398469      -0.12276883      -0.97315049
S       -6.09360473      -0.59281848       5.44834887      -0.82747216       0.41353229       0.44518635      -2.10974658       1.27118881      -0.58506352
C       -2.12165154      -2.42934806       6.04231825       0.54271742      -0.78191656      -0.54337683      -0.18012282       1.14320815       0.21286421
H       -2.10549917      -3.53113594       6.22515566       0.03334715       0.20975217      -0.17649980      -0.22758894       0.80837107      -0.80216742
H       -1.56975047      -2.03944703       5.16564103      -0.20930408      -0.05404991      -0.22623073       0.11452653      -1.07677555       0.24637696
C       -7.72294518       0.48164640       5.40225567       0.68671159      -1.12878388       0.25580267       0.34327626      -1.47290003       1.17486036
H       -8.39484222       0.38740059       4.53756553       0.02675993      -0.26089591      -0.17329109       0.94519866      -0.31696516      -0.56711918
H       -7.39332289       1.53373114       5.43511369       0.01847524       0.15141879      -0.02124963      -0.23141482      -0.33969972       0.54137200
C       -8.66265995      -0.07426021       6.55954575      -0.32385284       0.12461783       0.26665580       1.62260413       1.24306345      -2.60932922
H       -8.13627645      -0.19547771       7.48696057      -0.09442948      -0.21424818      -0.07048426      -0.15312660      -0.04570450       0.71910536
H       -9.43710049       0.65422074       6.50984438       0.03901460       0.28456382       0.02419900      -1.03379750       0.70336419       1.02905953
H       -9.09499851      -0.97241004       6.14689488      -0.23218166      -0.13710267       0.30592131      -0.01097204      -0.80338484       0.36538523
C       -1.58138350      -1.72150633       7.29671928       0.28458551      -0.12700410       0.93479654       0.14387447       0.43402100       0.02684566
H       -0.76549259      -2.27568335       7.75429133      -0.02363543      -0.08537630      -0.21849261      -0.13090937      -0.45801282       0.36771232
H       -1.11142156      -0.75806154       7.09128260      -0.05689652      -0.12818931      -0.13415940      -0.24230154       0.24246159      -0.45642498
H       -2.39285578      -1.49681326       8.00550928       0.09880921       0.06505354       0.24556766       0.33481327      -0.41387680       0.18537250
