22
Properties=species:S:1:pos:R:3:momenta:R:3:forces:R:3 energy=-30133.61550697714 pbc="F F F"
O       -2.34762596      -2.21468176       4.93014054      -0.17435209      -0.03333709      -1.48410348      -0.24689821       1.93132283      -0.22426423
H       -3.69894645      -1.62243470       6.02000195      -0.02663252      -0.28286668      -0.04151610      -0.57947441      -0.10926797       0.61136183
O       -2.67058077      -1.20093123       3.90026093      -0.04419425       1.28384045       0.64193942      -0.90371266      -1.08209528       1.50772315
H       -1.96142247      -1.36476834       3.28389232      -0.39958578      -0.36752163      -0.03502832       0.67461365       0.06199694      -0.59204119
H       -2.80327907      -3.00862792       4.64040657      -0.17442808       0.17860625       0.02246173      -0.47969392      -0.37327355      -0.53391111
H       -4.13236376      -0.10136581       3.98767297      -0.13223649       0.03876161       0.22899900       0.20166689       0.08567567       0.53575606
S       -4.81231322      -1.18757589       6.74445115      -0.34751264      -0.46195187      -1.77208156       1.13946005       0.24379939      -0.99809185
S       -4.97931585       0.74882911       4.68237359       0.86878612       0.95631099       1.25780057       0.58011649      -0.81439516      -0.04444417
C       -5.11826683      -2.62941383       7.79008555      -0.01932176      -0.70466977       0.33729179       0.56323600      -0.20995973       1.30475914
H       -4.14597251      -3.19562254       8.10452287       0.23230189      -0.09458981       0.10808469      -1.71465361       1.15656364      -0.59160930
H       -5.59583847      -2.16599189       8.70160541      -0.17656733      -0.11902604      -0.01124932       0.78980577      -0.58620429      -0.56150961
C       -5.82753710       1.37655002       3.22800611       0.31839676      -1.49920959       0.09097102       0.09201261      -1.27423847      -1.60917938
H       -5.58544953       0.69061455       2.35631625       0.02398541      -0.08713804      -0.13097013      -0.78987557       0.46544102       0.99102378
H       -5.42811153       2.29620750       2.92128659      -0.43917319      -0.01217207      -0.28491429       1.19590795       1.48326659      -0.26156691
C       -7.28832282       1.65070498       3.52253116       0.32703521       1.19607634      -0.41011788       0.72820139       0.20183606       1.72999680
H       -7.23207515       2.52491065       4.28677540      -0.09909897       0.04045569       0.16409331      -0.94585681      -1.40622365      -1.37594008
H       -7.88034204       1.81899279       2.63416927      -0.09828479       0.18626667      -0.05797632      -0.12233252       0.64476252      -0.30034661
H       -7.68602484       0.74672299       3.98339898       0.05584943      -0.08326885       0.17629425      -0.42871320       0.12406638       0.40845290
C       -6.15316734      -3.55818875       7.18876488       0.43482838      -0.26080402       0.84346163      -0.42560634      -2.50821304       0.56940043
H       -6.34308795      -4.42002547       7.96909494      -0.09550060      -0.03978250       0.12388625      -0.05732739       1.69210815      -1.36188388
H       -7.11486141      -3.07732535       6.87579583      -0.08579906       0.17828122       0.05716483       0.79317886      -0.21945365       0.53872967
H       -5.76864349      -4.11457893       6.30663248       0.05150521      -0.01226156       0.17550895      -0.06405511       0.49248502       0.25758412
