23
Properties=species:S:1:pos:R:3:momenta:R:3:forces:R:3 energy=-34119.251424804155 pbc="F F F"
N       -1.44312361      -3.64844007       3.23367126       0.82984608      -0.77157894      -0.06815597      -0.03985974       1.12560856       1.08860767
C       -1.14749820      -2.50440178       2.39582445      -0.59809250       0.22998091      -0.64641353      -0.94501883       1.61739576       0.20810649
H       -1.27606809      -3.33031296       4.20828138       0.01335752       0.14055774      -0.07480932      -0.16688704      -0.66443664      -0.66865981
H       -0.71133040      -4.29698940       3.01932249      -0.15669407       0.05867536      -0.06503040       0.60856950      -0.84557033       0.01304656
C       -1.65026705      -2.79692435       0.97051248      -0.35145037      -0.08591335       0.39284839      -1.87212980       1.64458466       0.40973768
S       -2.31157636      -1.30423376       0.11512257      -0.44792001       0.30662995       0.52781897       0.45209050      -0.79324837       0.24479368
H       -2.49951314      -3.43540908       0.84901003      -0.01686289      -0.09764125      -0.26927423      -0.73472482      -0.83660221       1.06998444
H       -0.90846432      -3.31205658       0.46814450       0.19506119       0.09371535       0.22311476       2.05663157      -0.80700308      -1.58968043
H       -1.26023186      -0.61971385       0.52540177       0.00836705       0.02369256      -0.05946591       0.60808685       1.49355814      -0.35410360
C        0.38865330      -2.25944344       2.25372218      -0.55089259      -0.09980818      -0.21702891       0.07082212      -4.60886192      -0.22502588
H       -1.70353975      -1.59820998       2.82197558       0.19751014       0.10813160      -0.02025774       0.85107839      -1.07323110      -0.50679922
O        1.08651644      -3.29639336       2.10561036       0.56469530      -1.22497535      -0.15619658      -1.13495076       1.87706828       0.31664652
N        0.92322227      -1.06439459       2.18711524      -0.10457548       0.77326759      -0.19280588       0.59312683       2.72358012      -0.45521724
H        0.38060676      -0.20619046       2.20056817      -0.04894598      -0.31310632       0.16466822      -0.10280460      -0.21417378      -0.02391526
C       -2.59176642       1.08217250      -0.62638084       0.07854251       0.21429673       0.09450190      -0.11636671       1.70784540       2.34486768
O       -2.97529506       0.75116084      -1.68196869       0.25950176       0.22558360       0.22400667      -0.22670621      -0.84303230      -2.55791950
S       -0.87086778       1.52491608      -0.17838089       0.55663591      -0.19254063      -0.16063818       0.57665476      -0.70128517      -1.44225197
H       -0.48272394       1.70828215      -1.50774383       0.23888370      -0.28008836      -0.13399513      -0.32158601      -0.28210142       1.43560660
C       -3.55481607       1.58556804       0.43061594      -0.78843836       0.84712157       0.31852475      -1.83147037       0.25465512       0.02774334
H       -3.07352689       2.00927391       1.30029463       0.13599138       0.16888577       0.04758250       0.24027148      -0.07412836       0.34116587
H        1.83238006      -0.98630741       1.73653780       0.19029571      -0.07651682       0.14036134      -0.12861186      -0.18790713       0.36087826
H       -4.27851156       0.79951090       0.71830244       0.10747814       0.01887701      -0.08585617       0.61751604       0.01344639      -0.02504162
H       -4.24469242       2.37137131       0.01152640      -0.31229373      -0.06724650       0.01650019       0.94626868      -0.52616030      -0.01256976
