23
Properties=species:S:1:pos:R:3:momenta:R:3:forces:R:3 energy=-34119.97681817533 pbc="F F F"
N       -3.68423914      -2.00950578       0.11442466       0.33278901      -0.14264984      -0.62946669      -3.00313497       0.26323134       0.21432106
C       -2.79779218      -1.23628457       0.91928270       0.85318621      -0.64142920       1.11060710       3.18049288      -0.24721268      -0.51453900
H       -4.55199683      -1.39685026      -0.07240949       0.29543852      -0.28400029      -0.16320863       1.51590502      -1.55717254       0.34162921
H       -4.01547898      -2.81718316       0.74715259      -0.00655824       0.22584503      -0.38451902       0.30943379       1.73822153      -1.28691339
C       -1.60602214      -2.21294623       1.20861510       0.28579287      -0.53034708      -1.27781042       0.79831219      -0.53538162       0.95238566
S       -0.55574504      -2.69186580      -0.22753612      -1.03049731       1.73566038       0.35555960      -0.43898979       0.64522348       0.47410542
H       -1.90499507      -3.24242599       1.58337603       0.07288649      -0.12106296      -0.11002358      -0.15569118       1.44900763      -0.05145353
H       -0.92250336      -1.74657837       1.96084017       0.12215315       0.26947939      -0.13134298      -0.49414319      -0.46488893      -0.39520860
H       -0.78191199      -1.59960864      -0.97173962       0.29329104      -0.39880899       0.09959927       0.40587873       0.96936650       0.03773633
C       -3.37141405      -0.69222978       2.19898564      -0.10358360       0.78747961       0.09714937      -1.93133783       0.05839062       1.40523303
H       -2.25411987      -0.35656127       0.39507807      -0.05126103       0.04701760       0.06019204      -1.40293276      -1.32480979       0.23013373
O       -4.39339234      -1.16111695       2.71552316      -0.65991148      -0.19773656      -0.97247072       0.65004134      -0.12977874      -0.80107075
N       -2.80566851       0.40925831       2.74276816      -0.05890877       0.57522321       0.42168854       2.83676720      -0.72463650      -2.12922287
H       -1.81207290       0.65657589       2.53900676      -0.05591231      -0.01758132      -0.19607344      -1.29189348       0.01252557       0.28865609
C        0.57565719       0.10614033       0.79228046      -0.40540849      -0.51936652      -0.24752651       0.30680611      -1.30036612      -2.00127360
O        0.00882369       0.59341966       1.71062378      -0.03773410       0.67503169       0.57411688      -1.03170693       0.84857047       2.47498202
S       -0.07525743       0.56017836      -0.84943799       0.03217290      -1.34581008       1.21260213      -1.04527873       0.46875538       0.66581737
H       -1.00282254       1.48442893      -0.27907012      -0.10100431      -0.00024277       0.17342340       1.43633270      -1.27898932      -0.93242759
C        1.73798925      -0.84421184       0.97578314       0.60820966      -0.15229035      -0.19085707       0.26327300       2.45604157       1.62535453
H        2.41701336      -0.44923218       1.79501891      -0.10933006      -0.11021319      -0.07147763      -0.89600497      -0.30953720      -0.87739825
H       -3.32773509       0.86187291       3.42692548      -0.33391141      -0.09972817      -0.11567339      -0.74750465       0.87299496       1.59688842
H        2.29359000      -0.89238263       0.08933921       0.04451557       0.23181843       0.20723154       0.84646136      -0.65235811      -1.45695174
H        1.31465831      -1.75203161       1.31461022       0.01358426       0.01371298       0.17827904      -0.11108689      -1.25719786       0.13921688
