23
Properties=species:S:1:pos:R:3:momenta:R:3:forces:R:3 energy=-34120.63041231085 pbc="F F F"
N       -1.70310569      -0.17446681      -0.56522702      -0.62136558       0.57735420       0.35935313      -1.75056863       3.20326614       0.83373719
C       -0.61031470      -0.93656724      -0.98072744      -0.77403203       0.07711969      -0.38892649       1.28891110      -2.41189504      -0.36741051
H       -1.48190797       0.85319729      -0.64034192       0.13021087      -0.06592857      -0.07968229       0.37058449      -1.25563395       0.52552271
H       -2.53022782      -0.19412256      -1.14841790       0.24166856       0.24824090       0.20779476      -0.01705958      -0.90686125      -0.37506908
C        0.00971689      -1.74205791       0.24317075      -0.10310677      -0.24684236       0.66232235      -1.49944210       0.95943093       0.87708312
S       -1.15178654      -3.05983901       0.87325663      -0.24083832       0.08692307      -0.24283142      -0.57534922       1.11542186      -0.18705793
H        0.28824685      -1.08438934       1.12979457       0.02480005      -0.36434010       0.00523565      -0.55959392      -0.42643762      -1.27212024
H        0.91216496      -2.25011554      -0.01401899      -0.30636840       0.09403721      -0.30772652       0.73144984      -0.52466458      -0.51375532
H       -2.36706345      -2.44877990       0.58819806      -0.00892734      -0.05203509      -0.19065914       1.02682250      -0.02521118       0.46877340
C        0.48866465      -0.04454989      -1.57343988      -0.65495999      -0.19975532       0.47017871       0.28841817      -3.38938570      -1.28273809
H       -0.91582309      -1.72609417      -1.74779504      -0.01014039       0.04904202       0.01124075       0.42451438       0.80487722       0.80240476
O        0.54647270       1.11158863      -1.34715440       0.14592419       0.40186639      -0.23110149       0.27791509       3.32213712       0.72325796
N        1.38901655      -0.72058185      -2.40119011       1.04317895       0.55599181       0.18272373      -0.81895298       1.09303820       1.68454754
H        0.98351552      -1.54395264      -2.76730639      -0.13023303      -0.05392495      -0.23977617       0.10328323      -0.96514571      -0.88244325
C       -2.64966701      -0.53788846       3.45606288       0.50543155      -0.47092263      -0.07025200      -1.35679074      -2.85296532       0.39262213
O       -3.01001887      -1.33604732       4.31529002      -0.04186613      -0.52724953       0.98178609       0.89504999       1.29226649      -0.53399634
S       -3.82720848      -0.36086250       2.12143551       0.20445579       1.24006913      -1.16775388       0.28307106       0.02657613      -0.02373115
H       -2.98473552       0.27765287       1.33060052      -0.23302149      -0.09317510      -0.09320691       0.32285562       0.31145740      -0.72958046
C       -1.31607088       0.13798069       3.46816683       0.61349992      -0.96027446      -0.12422805      -0.56943780       0.70670855      -1.40248883
H       -1.05580836       0.05553643       4.50557243       0.19009013       0.35602811      -0.01048941       0.92063129       0.22084467       0.48619762
H        1.89146256      -0.09973431      -3.00500886       0.10182374      -0.19692481       0.30188010       0.35931796      -0.00042677      -0.51091146
H       -1.47343954       1.19429867       3.12778629       0.06489306      -0.24520512       0.06243656       0.55384523      -0.70582491       0.43932325
H       -0.59841848      -0.37889549       2.76729704      -0.14111848      -0.21009501      -0.09831738      -0.69947457       0.40842867       0.84783220
